# vtk DataFile Version 2.0
Unstructured Grid Example
ASCII
DATASET UNSTRUCTURED_GRID
POINTS 1108 float
0.998512 -0.000570 0.014051 
-0.998511 0.000553 -0.013919 
-0.000730 0.991848 0.002146 
0.000630 -0.991664 -0.002230 
0.013827 0.002161 1.009738 
-0.013768 -0.002240 -1.009660 
1.198579 -0.000396 0.009311 
-1.198602 0.000252 -0.009319 
-0.000517 1.192104 0.001456 
0.000476 -1.192220 -0.001579 
0.009235 0.001458 1.209165 
-0.009284 -0.001513 -1.209215 
0.979107 0.193411 0.014131 
0.921891 0.379654 0.013758 
0.829076 0.551106 0.012750 
0.704473 0.701369 0.011459 
0.553031 0.824520 0.009306 
0.380652 0.916032 0.007196 
0.193714 0.972504 0.004807 
-0.195137 0.973253 -0.000364 
-0.381979 0.917125 -0.003130 
-0.554567 0.825778 -0.005955 
-0.705791 0.702737 -0.008412 
-0.829855 0.552509 -0.010249 
-0.922585 0.380972 -0.012117 
-0.979407 0.194499 -0.013219 
-0.979099 -0.193524 -0.014014 
-0.922073 -0.379763 -0.013643 
-0.829432 -0.551266 -0.012657 
-0.704808 -0.701464 -0.011359 
-0.553206 -0.824514 -0.009427 
-0.380737 -0.916017 -0.007389 
-0.193724 -0.972556 -0.004774 
0.194939 -0.973026 0.000372 
0.381944 -0.916842 0.003092 
0.554506 -0.825673 0.006103 
0.705816 -0.702716 0.008377 
0.829876 -0.552474 0.010262 
0.922638 -0.381001 0.012146 
0.979399 -0.194543 0.013255 
0.013632 -0.192400 0.989308 
0.013022 -0.379227 0.930600 
0.011752 -0.550907 0.835964 
0.010171 -0.701125 0.709399 
0.008271 -0.824020 0.556337 
0.005765 -0.915571 0.382032 
0.003212 -0.972058 0.193513 
-0.002083 -0.973688 -0.197846 
-0.004700 -0.918610 -0.386569 
-0.007217 -0.828219 -0.561018 
-0.009309 -0.705780 -0.714210 
-0.011034 -0.555735 -0.840170 
-0.012505 -0.383815 -0.933766 
-0.013328 -0.196865 -0.990971 
-0.013614 0.192436 -0.989277 
-0.012875 0.379242 -0.930346 
-0.011854 0.550875 -0.835930 
-0.010232 0.701153 -0.709516 
-0.008247 0.824087 -0.556411 
-0.005861 0.915588 -0.382117 
-0.003333 0.972068 -0.193558 
0.001967 0.973681 0.197805 
0.004753 0.918532 0.386755 
0.007222 0.828259 0.560972 
0.009385 0.705721 0.714145 
0.011134 0.555696 0.840252 
0.012547 0.383739 0.933608 
0.013418 0.196785 0.990868 
0.984781 -0.000136 0.210352 
0.932983 0.000342 0.400057 
0.844665 0.000664 0.574759 
0.722361 0.001011 0.727608 
0.571469 0.001524 0.851861 
0.398200 0.001776 0.942215 
0.209625 0.001959 0.995258 
-0.181438 0.002153 0.984996 
-0.368580 0.002359 0.922497 
-0.541094 0.002064 0.825322 
-0.692473 0.001926 0.698056 
-0.817721 0.001807 0.544318 
-0.913042 0.001260 0.370357 
-0.974042 0.000943 0.182030 
-0.984800 0.000107 -0.210244 
-0.932870 -0.000333 -0.399930 
-0.844415 -0.000624 -0.574702 
-0.722191 -0.001005 -0.727536 
-0.571351 -0.001408 -0.852074 
-0.398208 -0.001736 -0.942244 
-0.209591 -0.001997 -0.995241 
0.181556 -0.002281 -0.984997 
0.368640 -0.002358 -0.922544 
0.541241 -0.002146 -0.825397 
0.692579 -0.001967 -0.698045 
0.817708 -0.001786 -0.544343 
0.913029 -0.001356 -0.370280 
0.974175 -0.001008 -0.182001 
1.183629 0.186628 0.009342 
1.139310 0.368933 0.009298 
1.066709 0.542061 0.008850 
0.968112 0.701548 0.008454 
0.845710 0.843456 0.007713 
0.702496 0.964801 0.006401 
0.542287 1.062182 0.005438 
0.368898 1.133507 0.004148 
0.186544 1.177249 0.003044 
-0.187542 1.177755 -0.000127 
-0.369874 1.134618 -0.001790 
-0.543407 1.063293 -0.002832 
-0.703520 0.966117 -0.004032 
-0.846893 0.844724 -0.005316 
-0.969375 0.702414 -0.006821 
-1.067574 0.542990 -0.007551 
-1.140025 0.369662 -0.008256 
-1.183991 0.187268 -0.008863 
-1.183685 -0.186621 -0.009385 
-1.139489 -0.369003 -0.009277 
-1.066993 -0.542154 -0.008869 
-0.968390 -0.701720 -0.008389 
-0.845721 -0.843580 -0.007478 
-0.702508 -0.964919 -0.006371 
-0.542362 -1.062170 -0.005375 
-0.368943 -1.133547 -0.004171 
-0.186554 -1.177209 -0.003056 
0.187426 -1.177701 0.000097 
0.369774 -1.134386 0.001742 
0.543252 -1.063186 0.002876 
0.703426 -0.966030 0.004120 
0.846826 -0.844782 0.005378 
0.969352 -0.702452 0.006953 
1.067575 -0.543025 0.007593 
1.140039 -0.369702 0.008263 
1.183980 -0.187344 0.008904 
-0.001207 -1.178318 -0.189428 
-0.002455 -1.135860 -0.372759 
-0.003874 -1.065684 -0.547584 
-0.004905 -0.969173 -0.709513 
-0.006263 -0.848489 -0.854030 
-0.007478 -0.706622 -0.977985 
-0.008008 -0.546542 -1.077884 
-0.008566 -0.372683 -1.150888 
-0.009046 -0.189376 -1.194954 
-0.009136 0.186304 -1.193495 
-0.008892 0.369359 -1.147837 
-0.008443 0.542578 -1.073989 
-0.007788 0.702039 -0.973618 
-0.006855 0.843956 -0.849884 
-0.005536 0.965021 -0.705023 
-0.004519 1.061997 -0.543767 
-0.003505 1.133002 -0.369615 
-0.001866 1.176892 -0.186226 
0.001273 1.178439 0.189496 
0.002434 1.135756 0.372866 
0.003586 1.065883 0.547254 
0.004880 0.969224 0.709515 
0.006264 0.848432 0.854057 
0.007612 0.706609 0.977806 
0.008074 0.546513 1.077838 
0.008636 0.372670 1.150763 
0.009085 0.189422 1.194916 
0.009230 -0.186384 1.193477 
0.008894 -0.369282 1.148000 
0.008433 -0.542671 1.074017 
0.007817 -0.702098 0.973470 
0.006814 -0.843978 0.849774 
0.005504 -0.964976 0.704935 
0.004500 -1.061937 0.543710 
0.003478 -1.132986 0.369537 
0.001828 -1.176857 0.186074 
-1.179094 0.000608 0.178833 
-1.131371 0.000670 0.361282 
-1.056675 0.001021 0.534531 
-0.957413 0.001009 0.694754 
-0.835596 0.001435 0.839020 
-0.693051 0.001438 0.963262 
-0.533987 0.001466 1.064276 
-0.361309 0.001420 1.140730 
-0.178876 0.001516 1.189497 
0.198015 0.001308 1.198966 
0.382671 0.001293 1.158504 
0.558618 0.001133 1.088743 
0.720600 0.000908 0.990706 
0.863716 0.000755 0.867090 
0.985163 0.000623 0.722189 
1.081423 0.000264 0.559375 
1.149542 0.000011 0.382988 
1.188659 -0.000168 0.197837 
1.179134 -0.000654 -0.178688 
1.131293 -0.000857 -0.361329 
1.056602 -0.001037 -0.534529 
0.957507 -0.001090 -0.694801 
0.835568 -0.001399 -0.839086 
0.693024 -0.001350 -0.963305 
0.534020 -0.001445 -1.064355 
0.361438 -0.001473 -1.140700 
0.178873 -0.001480 -1.189575 
-0.197932 -0.001283 -1.198880 
-0.382533 -0.001265 -1.158506 
-0.558625 -0.001190 -1.088867 
-0.720540 -0.001128 -0.990452 
-0.863636 -0.000746 -0.866982 
-0.985003 -0.000593 -0.722062 
-1.081210 -0.000226 -0.559253 
-1.149449 0.000009 -0.382941 
-1.188662 0.000147 -0.197807 
0.808602 -0.393993 -0.405079 
0.410045 -0.788381 -0.440901 
0.381621 -0.376822 -0.836914 
0.883839 -0.296803 -0.325787 
0.291572 -0.888204 -0.334055 
0.669299 -0.334286 -0.641807 
0.548011 -0.626268 -0.535336 
0.866202 -0.477809 -0.098011 
0.170532 -0.618001 -0.767876 
0.598901 -0.171774 -0.764764 
0.861871 -0.156145 -0.449276 
0.200063 -0.847368 -0.482121 
0.945775 -0.138228 -0.253667 
0.791853 -0.291118 -0.507688 
0.675792 -0.639124 -0.336380 
0.460372 -0.855789 -0.198040 
0.624657 -0.751769 -0.168255 
0.515138 -0.474974 -0.699307 
0.783652 -0.142373 -0.576294 
0.550600 -0.747865 -0.343864 
0.981531 -0.122744 -0.100520 
0.767458 -0.612720 -0.143185 
0.149237 -0.941749 -0.278940 
0.933086 -0.305055 -0.147270 
0.725430 -0.466420 -0.478604 
0.266583 -0.943879 -0.151495 
0.536615 -0.299961 -0.774267 
0.324903 -0.701550 -0.625508 
0.826344 -0.465512 -0.280312 
0.484717 -0.181964 -0.843835 
0.139158 -0.754939 -0.638962 
0.183616 -0.480156 -0.859257 
0.164526 -0.318736 -0.936581 
0.340625 -0.554358 -0.752764 
0.626874 -0.478263 -0.594169 
0.123299 -0.976678 -0.126355 
0.438001 -0.598594 -0.658595 
0.316169 -0.216642 -0.919994 
0.191774 -0.134385 -0.973911 
0.489652 0.575308 -0.631180 
0.496308 0.775524 -0.351634 
0.796259 0.367083 -0.443577 
0.387578 0.462407 -0.782365 
0.344359 0.876656 -0.296339 
0.277500 0.308706 -0.903302 
0.156683 0.160617 -0.975823 
0.747521 0.212159 -0.599990 
0.660801 0.530417 -0.497830 
0.497724 0.838535 -0.162502 
0.587384 0.172401 -0.771062 
0.176219 0.868917 -0.438854 
0.156574 0.469769 -0.864708 
0.545800 0.675197 -0.462755 
0.147174 0.945110 -0.253185 
0.375921 0.136044 -0.907843 
0.110585 0.318915 -0.942432 
0.617373 0.695036 -0.326422 
0.104178 0.619217 -0.772506 
0.158301 0.747561 -0.631689 
0.289963 0.617556 -0.716565 
0.850350 0.480874 -0.158721 
0.595408 0.387512 -0.679375 
0.366889 0.757650 -0.513642 
0.751157 0.547172 -0.325486 
0.123107 0.976854 -0.107812 
0.285596 0.937861 -0.134639 
0.702247 0.683481 -0.137531 
0.938009 0.144429 -0.272741 
0.459399 0.300416 -0.820361 
0.845249 0.404884 -0.304519 
0.864213 0.167233 -0.437500 
0.932974 0.289306 -0.164064 
0.885737 0.279695 -0.328526 
0.977651 0.126649 -0.118421 
0.712131 0.378558 -0.560080 
0.474271 0.462103 0.776525 
0.457903 0.802402 0.393994 
0.839550 0.411847 0.388635 
0.347135 0.316351 0.906395 
0.306850 0.900590 0.303984 
0.910929 0.336969 0.271151 
0.967374 0.168060 0.225904 
0.560731 0.632717 0.558666 
0.120637 0.482137 0.881735 
0.766783 0.167996 0.656785 
0.458179 0.162469 0.901541 
0.430204 0.878892 0.191550 
0.867238 0.470592 0.182256 
0.276520 0.143840 0.971093 
0.254497 0.949690 0.148263 
0.940085 0.320607 0.138199 
0.628911 0.161671 0.794312 
0.530693 0.294204 0.825027 
0.328957 0.629848 0.722925 
0.775653 0.617281 0.126954 
0.670167 0.719630 0.181812 
0.600527 0.496339 0.656571 
0.201991 0.752539 0.638621 
0.764571 0.576374 0.312361 
0.635047 0.683652 0.380056 
0.398383 0.719308 0.587130 
0.554123 0.799317 0.232933 
0.110832 0.978757 0.127340 
0.126426 0.125616 0.998866 
0.476639 0.596040 0.670635 
0.161671 0.613564 0.786695 
0.712951 0.507590 0.515024 
0.656231 0.352186 0.700707 
0.171360 0.311441 0.951512 
0.168155 0.942984 0.274045 
0.796086 0.321066 0.550066 
0.852647 0.141626 0.542747 
0.222079 0.861566 0.461047 
0.895781 0.233761 0.416671 
0.269345 0.478783 0.855297 
0.516776 -0.783840 0.349735 
0.343331 -0.371041 0.881492 
0.332193 -0.867940 0.363948 
0.162166 -0.462576 0.881457 
0.528868 -0.157427 0.862314 
0.428666 -0.878679 0.192766 
0.617509 -0.545629 0.590543 
0.281264 -0.172924 0.962876 
0.229974 -0.949521 0.180893 
0.915775 -0.372776 0.175908 
0.779822 -0.400375 0.513328 
0.739573 -0.656731 0.151066 
0.879358 -0.188443 0.475591 
0.960031 -0.181259 0.249631 
0.521259 -0.321485 0.816479 
0.574168 -0.674164 0.480866 
0.612759 -0.770303 0.170748 
0.713119 -0.634966 0.315195 
[...]
POINT_DATA 1108
SCALARS u float 1
LOOKUP_TABLE default
0.014141
0.014009
0.008461
0.008652
0.017050
0.016967
0.009427
0.009426
0.008046
0.007953
0.013093
0.013168
0.014329
0.014227
0.013719
0.013083
0.011889
0.010839
0.009674
0.007541
0.007477
0.008299
0.009570
0.010818
0.012305
0.013304
0.014202
0.014068
0.013523
0.012890
0.011952
0.010964
0.009612
0.007770
0.007723
0.008485
0.009546
0.010837
0.012325
0.013339
0.016301
0.015056
0.013418
0.012020
0.011158
0.010134
0.009432
0.007893
0.008060
0.009609
0.011784
0.014052
0.015981
0.016868
0.016263
0.014813
0.013508
0.012080
0.011100
0.010170
0.009457
0.007855
0.008232
0.009573
0.011812
0.014181
0.015912
0.016869
0.015776
0.019617
0.023298
0.025574
0.025902
0.024085
0.020605
0.014448
0.014366
0.015862
0.017314
0.017857
0.016462
0.014729
0.015677
0.019452
0.023109
0.025414
0.025992
0.024109
0.020573
0.014357
0.014303
0.015710
0.017235
0.017850
0.016536
0.014699
0.009540
0.009688
0.009592
0.009654
0.009652
0.009236
0.009230
0.009008
0.008619
0.007474
0.006951
0.006702
0.006458
0.006738
0.007562
0.007932
0.008429
0.008960
0.009574
0.009620
0.009514
0.009455
0.009396
0.009135
0.009182
0.008974
0.008658
0.007532
0.007175
0.006848
0.006602
0.006772
0.007672
0.007965
0.008429
0.008999
0.007217
0.006248
0.005936
0.006646
0.008336
0.010435
0.011936
0.013015
0.013387
0.012403
0.011152
0.009952
0.008910
0.008351
0.008024
0.008571
0.009059
0.008670
0.007130
0.006363
0.005476
0.006616
0.008355
0.010409
0.011944
0.012967
0.013391
0.012452
0.011260
0.009936
0.008869
0.008288
0.008038
0.008618
0.009074
0.008723
0.010816
0.013761
0.016228
0.017114
0.016115
0.014500
0.011964
0.009632
0.009939
0.017218
0.020957
0.023962
0.025081
0.023995
0.022134
0.019027
0.014715
0.010683
0.010915
0.013795
0.016286
0.017016
0.016096
0.014493
0.011899
0.009515
0.009970
0.017098
0.020879
0.024070
0.024853
0.023861
0.021932
0.018797
0.014623
0.010656
0.014415
0.009119
0.012618
0.014457
0.007998
0.015060
0.011590
0.011624
0.011169
0.015520
0.016383
0.008502
0.014842
0.015738
0.011705
0.008543
0.009791
0.012650
0.017079
0.010101
0.013740
0.010903
0.007728
0.013093
0.014109
0.007579
0.014243
0.009843
0.012987
0.014279
0.009817
0.012420
0.013624
0.011095
0.013625
0.007766
0.011095
0.013326
0.014045
0.016455
0.014878
0.017908
0.015360
0.013116
0.014365
0.014512
0.018282
0.017380
0.013174
0.016987
0.012303
0.013619
0.016419
0.011090
0.014824
0.014323
0.015662
0.012928
0.012776
0.014369
0.015136
0.017664
0.014733
0.016707
0.009935
0.011276
0.014279
0.016005
0.016099
0.016632
0.017818
0.015149
0.016881
0.014589
0.018124
0.022150
0.012473
0.018249
0.022506
0.009679
0.016554
0.016374
0.017521
0.016817
0.024429
0.024854
0.010439
0.014728
0.022153
0.009262
0.014908
0.026071
0.024700
0.017353
0.013362
0.012756
0.021111
0.013359
0.015304
0.014843
0.015286
0.011669
0.008299
0.019177
0.019027
0.015498
0.019290
0.023720
0.019419
0.008523
0.021978
0.022723
0.010403
0.019741
0.019464
0.010274
0.019754
0.009023
0.015896
0.024485
0.008149
0.017522
0.021030
0.008082
0.013520
0.019149
0.010615
0.020462
0.016016
0.022319
0.013404
0.009413
0.012738
0.018602
0.017817
0.011115
0.009427
0.011520
0.012069
0.015007
0.023668
0.009873
0.018340
0.015998
0.014771
0.021578
0.013701
0.013441
0.016370
0.024762
0.022810
0.016842
0.008313
0.016568
0.014977
0.017700
0.015563
0.013270
0.014346
0.014444
0.018185
0.017481
0.013315
0.017209
0.012308
0.013705
0.016168
0.010985
0.014885
0.014318
0.015650
0.012858
0.012762
0.014388
0.014850
0.017750
0.014765
0.016600
0.009930
0.011345
0.014157
0.015871
0.016096
0.016663
0.017741
0.014947
0.016765
0.014541
0.018239
0.021740
0.012334
0.017924
0.022531
0.009767
0.016432
0.016286
0.017569
0.016746
0.024405
0.024825
0.010493
0.014594
0.022066
0.009213
0.014779
0.025795
0.024645
0.017107
0.013158
0.012803
0.021016
0.013018
0.015228
0.014819
0.015227
0.011724
0.008388
0.019191
0.018609
0.015468
0.019169
0.023508
0.019481
0.008675
0.021775
0.022486
0.010468
0.019714
0.019455
0.010193
0.019708
0.008993
0.015920
0.024627
0.008049
0.017466
0.021026
0.007973
0.013498
0.019025
0.010590
0.020356
0.015918
0.022217
0.013443
0.009251
0.012661
0.018484
0.017709
0.011050
0.009449
0.011538
0.012083
0.014975
0.023595
0.009888
0.018296
0.015875
0.014589
0.021477
0.013569
0.013411
0.016272
0.024709
0.022860
0.016687
0.008207
0.014421
0.009116
0.012711
0.014523
0.008037
0.015064
0.011578
0.011645
0.011187
0.015595
0.016413
0.008239
0.014750
0.015732
0.011665
0.008419
0.009526
0.012674
0.017098
0.010030
0.013681
0.010858
0.007731
0.013119
0.014102
0.007462
0.014319
0.009972
0.012964
0.014380
0.009876
0.012492
0.013679
0.011199
0.013612
0.007671
0.011200
0.013381
0.014081
0.010485
0.015952
0.016825
0.011970
0.006203
0.011826
0.006617
0.017855
0.009514
0.007421
0.016118
0.021730
0.008794
0.011740
0.019990
0.007126
0.023782
0.011130
0.007135
0.010743
0.008240
0.005934
0.015530
0.007705
0.014029
0.013572
0.009357
0.006584
0.011698
0.007887
0.017774
0.019178
0.012937
0.012579
0.016490
0.007028
0.014795
0.022963
0.007640
0.021857
0.014251
0.024211
0.008860
0.018785
0.007239
0.015597
0.006442
0.007928
0.006124
0.010363
0.006004
0.014502
0.010050
0.007987
0.009639
0.009484
0.018365
0.020701
0.006746
0.021856
0.013423
0.019584
0.015501
0.015665
0.011516
0.011951
0.014332
0.011052
0.013249
0.009853
0.009769
0.010689
0.009856
0.017418
0.011622
0.010720
0.010500
0.017431
0.014031
0.009260
0.014904
0.013947
0.011482
0.011868
0.010446
0.015238
0.009552
0.016236
0.010849
0.011574
0.009774
0.012193
0.013921
0.013272
0.016231
0.017042
0.015150
0.016405
0.013742
0.009420
0.017150
0.011247
0.015571
0.009396
0.016292
0.012601
0.017594
0.012365
0.016248
0.013303
0.011589
0.012680
0.013963
0.015164
0.016924
0.010156
0.008781
0.014084
0.017680
0.012740
0.011191
0.011087
0.009871
0.009418
0.021072
0.013610
0.007219
0.021048
0.014915
0.019328
0.012675
0.006682
0.018823
0.012083
0.007322
0.009681
0.013253
0.009803
0.009621
0.014530
0.007947
0.007249
0.020093
0.023598
0.024771
0.020870
0.010136
0.016027
0.006478
0.017612
0.022269
0.016195
0.010135
0.016300
0.009672
0.012864
0.011418
0.014682
0.016155
0.015913
0.020983
0.008744
0.011360
0.008473
0.008603
0.009199
0.008373
0.017132
0.011834
0.018770
0.012525
0.023094
0.024725
0.023146
0.018255
0.017231
0.019938
0.009929
0.015765
0.017165
0.013602
0.007358
0.023540
0.007757
0.006076
0.007822
0.013279
0.010036
0.007534
0.009105
0.013037
0.008945
0.011689
0.009532
0.011493
0.007359
0.009890
0.007105
0.008920
0.008486
0.009432
0.005954
0.007787
0.014952
0.012056
0.012691
0.016029
0.009796
0.009506
0.007495
0.011599
0.009733
0.014196
0.010765
0.009716
0.008491
0.006481
0.007140
0.008530
0.010037
0.011639
0.009888
0.013343
0.009580
0.007876
0.007996
0.007056
0.008381
0.006527
0.007915
0.007972
0.011243
0.008345
0.011724
0.014570
0.016081
0.010719
0.014674
0.010849
0.013176
0.009692
0.011142
0.011662
0.008897
0.007142
0.014923
0.007047
0.007245
0.011958
0.018694
0.020619
0.013076
0.006651
0.012632
0.006845
0.010045
0.007892
0.011649
0.023034
0.024107
0.014872
0.007756
0.020440
0.014189
0.024706
0.008805
0.011587
0.009617
0.007886
0.006267
0.015980
0.022934
0.015750
0.010254
0.007481
0.006978
0.012029
0.020366
0.017173
0.019886
0.022012
0.016300
0.015429
0.018925
0.008950
0.015943
0.008837
0.023362
0.023068
0.017494
0.024777
0.011303
0.019869
0.009551
0.016561
0.006824
0.008766
0.008676
0.011708
0.007356
0.012528
0.015978
0.007816
0.009903
0.019914
0.012402
0.020100
0.008318
0.017411
0.015584
0.013252
0.009983
0.007488
0.009020
0.013016
0.008908
0.011694
0.007323
0.009506
0.011546
0.007400
0.007248
0.009902
0.006866
0.008487
0.009500
0.005908
0.007849
0.014946
0.011970
0.012591
0.016009
0.009779
0.009506
0.006514
0.011588
0.009647
0.014236
0.010760
0.009724
0.008762
0.008284
0.010240
0.011685
0.009761
0.013339
0.009463
0.007906
0.008184
0.006913
0.009326
0.006462
0.008043
0.007867
0.011250
0.008270
0.011766
0.014513
0.016026
0.010602
0.014656
0.010777
0.013184
0.009729
0.011137
0.008733
0.011722
0.008203
0.014866
0.006512
0.007391
0.007282
0.010464
0.015951
0.018178
0.012044
0.006239
0.011887
0.006697
0.009550
0.007530
0.021851
0.008801
0.022621
0.011712
0.020109
0.007121
0.023581
0.011117
0.007197
0.010821
0.008273
0.006007
0.015668
0.007717
0.021568
0.013555
0.009373
0.006669
0.011753
0.007956
0.017547
0.014315
0.019308
0.019816
0.013068
0.012581
0.016654
0.007009
0.014932
0.023072
0.007616
0.020965
0.014260
0.024240
0.008809
0.018915
0.007223
0.015747
0.006422
0.008011
0.006218
0.010400
0.006052
0.014608
0.010003
0.008060
0.009692
0.018618
0.009509
0.018408
0.006798
0.015996
0.014933
0.014003
0.016518
0.015870
0.011987
0.010293
0.011044
0.009622
0.013707
0.009724
0.010190
0.011290
0.013794
0.017108
0.017481
0.011667
0.014298
0.011163
0.017249
0.011863
0.012849
0.010351
0.009393
0.010853
0.010609
0.015814
0.016157
0.010492
0.009432
0.009825
0.009519
0.016661
0.015959
0.017636
0.016919
0.015831
0.013193
0.013812
0.011085
0.016035
0.014085
0.017244
0.011198
0.017467
0.013640
0.015042
0.012748
0.012049
0.011409
0.009527
0.011949
0.010185
0.015147
0.015394
0.010782
0.008824
0.016209
0.014836
0.014014
0.009370
0.011419
0.013993
0.010607
0.012341
0.012647
0.019713
0.013902
0.015181
0.017358
0.016979
0.006294
0.003267
0.012599
0.011773
0.014290
0.012663
0.020787
0.012064
0.012990
0.013957
0.021148
0.016097
0.002915
0.008151
0.010097
0.009706
0.012216
0.019616
0.016669
0.018674
0.016221
0.017364
0.014174
0.021022
0.020243
0.018268
0.017436
0.011323
0.021449
0.021047
0.008152
0.016630
0.007407
0.016109
0.024147
0.013332
0.017139
0.014066
0.023073
0.009769
0.009860
0.020840
0.010621
0.012473
0.019296
0.023246
0.016105
0.015648
0.014257
0.015466
0.011295
0.015756
0.018456
0.015766
0.015908
0.013749
0.014805
0.015216
0.015909
0.020059
0.023755
0.012256
0.016699
0.019756
0.020100
0.020138
0.022433
0.013603
0.016342
0.018496
0.022290
0.020005
0.019078
0.017547
0.020376
0.019234
0.023625
0.021084
0.017055
0.008915
0.009814
0.007740
0.012682
0.009081
0.008827
0.015371
0.017330
0.014645
0.015122
0.016167
0.016630
0.007950
0.006095
0.015773
0.004751
