# vtk DataFile Version 2.0
Unstructured Grid Example
ASCII
DATASET UNSTRUCTURED_GRID
POINTS 1108 float
0.983504 -0.021380 0.003509 
-0.983762 0.021078 -0.003299 
-0.021292 1.022110 -0.005826 
0.021282 -1.022258 0.005883 
0.003486 -0.005672 0.993501 
-0.003561 0.005897 -0.994283 
1.184514 -0.014125 0.002327 
-1.184529 0.014269 -0.002185 
-0.014104 1.220899 -0.003635 
0.014400 -1.221091 0.003837 
0.002253 -0.003779 1.193904 
-0.002219 0.003661 -1.194314 
0.957150 0.175265 0.002167 
0.895282 0.364292 0.001050 
0.800867 0.539758 -0.000054 
0.677394 0.695324 -0.001545 
0.528370 0.826536 -0.002888 
0.358153 0.927675 -0.004003 
0.172853 0.993763 -0.004933 
-0.216052 1.009739 -0.006309 
-0.403594 0.957821 -0.006680 
-0.574623 0.867098 -0.006660 
-0.722594 0.740848 -0.006401 
-0.841400 0.585926 -0.006010 
-0.925565 0.409248 -0.005331 
-0.973355 0.218396 -0.004419 
-0.957504 -0.175440 -0.002047 
-0.895512 -0.364407 -0.001147 
-0.801459 -0.539953 0.000182 
-0.677935 -0.695268 0.001635 
-0.528516 -0.826234 0.002853 
-0.358061 -0.927267 0.003948 
-0.172661 -0.993831 0.005064 
0.216238 -1.009864 0.006463 
0.403734 -0.957692 0.006779 
0.574768 -0.867154 0.006819 
0.722910 -0.740862 0.006515 
0.841414 -0.585955 0.006078 
0.925801 -0.409489 0.005486 
0.973448 -0.218677 0.004623 
0.007731 -0.203449 0.976762 
0.011453 -0.394114 0.923221 
0.014885 -0.570785 0.834272 
0.017580 -0.725854 0.712560 
0.019677 -0.853531 0.562407 
0.020943 -0.947719 0.390006 
0.021812 -1.004219 0.201615 
0.020171 -0.999863 -0.189694 
0.018323 -0.938752 -0.377216 
0.015613 -0.841627 -0.549616 
0.012348 -0.713270 -0.700247 
0.008870 -0.558080 -0.823624 
0.004769 -0.381988 -0.915742 
0.000475 -0.191488 -0.973297 
-0.007470 0.203164 -0.977268 
-0.011319 0.394018 -0.923894 
-0.014788 0.570614 -0.834220 
-0.017383 0.725639 -0.712354 
-0.019446 0.853345 -0.562289 
-0.020751 0.947538 -0.389885 
-0.021611 1.004209 -0.201543 
-0.020035 0.999894 0.189942 
-0.018217 0.938862 0.377591 
-0.015747 0.842140 0.549620 
-0.012428 0.713516 0.700315 
-0.009163 0.558188 0.823706 
-0.004996 0.382237 0.915419 
-0.000589 0.191846 0.972882 
0.966238 -0.021910 0.197077 
0.911858 -0.021858 0.383086 
0.821958 -0.020628 0.554605 
0.700450 -0.018999 0.705224 
0.551568 -0.016709 0.828647 
0.381102 -0.013223 0.919940 
0.195960 -0.009300 0.975621 
-0.189217 -0.001159 0.972887 
-0.373622 0.002652 0.914774 
-0.544164 0.007320 0.821987 
-0.693652 0.010764 0.697855 
-0.816052 0.014318 0.547131 
-0.907108 0.017181 0.375803 
-0.963716 0.019437 0.190090 
-0.966294 0.021707 -0.196855 
-0.911782 0.021817 -0.382862 
-0.821815 0.020447 -0.554391 
-0.700294 0.018901 -0.705124 
-0.551208 0.016376 -0.828871 
-0.381217 0.012799 -0.920404 
-0.196273 0.009310 -0.976399 
0.188905 0.001654 -0.973213 
0.373954 -0.002697 -0.915125 
0.544212 -0.007145 -0.822203 
0.693395 -0.010846 -0.697795 
0.815685 -0.014384 -0.547039 
0.907004 -0.017506 -0.375664 
0.963716 -0.019852 -0.189756 
1.162840 0.173314 0.001705 
1.114215 0.355358 0.000941 
1.040129 0.528268 0.000200 
0.942715 0.689165 -0.000509 
0.823036 0.834689 -0.000879 
0.683113 0.961442 -0.001789 
0.526074 1.066196 -0.002332 
0.355140 1.146166 -0.002833 
0.173621 1.198447 -0.003418 
-0.202996 1.212888 -0.003970 
-0.387774 1.173641 -0.004474 
-0.564010 1.103709 -0.004448 
-0.724840 1.003602 -0.004716 
-0.865892 0.877684 -0.004240 
-0.984629 0.730819 -0.003942 
-1.077381 0.565957 -0.003768 
-1.141769 0.388181 -0.003360 
-1.177365 0.202733 -0.002939 
-1.163244 -0.173534 -0.001656 
-1.114515 -0.355801 -0.000718 
-1.040452 -0.528394 -0.000105 
-0.943127 -0.689653 0.000539 
-0.822806 -0.835149 0.000942 
-0.682889 -0.961508 0.001921 
-0.525939 -1.065938 0.002367 
-0.355092 -1.145943 0.002941 
-0.173611 -1.198541 0.003298 
0.203035 -1.212853 0.004045 
0.387980 -1.173605 0.004457 
0.564085 -1.103739 0.004561 
0.724940 -1.003651 0.004757 
0.866058 -0.877865 0.004325 
0.984853 -0.730991 0.004005 
1.077541 -0.566161 0.003836 
1.141989 -0.388308 0.003423 
1.177454 -0.202714 0.003007 
0.013676 -1.203731 -0.185197 
0.012754 -1.156234 -0.368656 
0.011565 -1.080284 -0.542265 
0.010372 -0.978106 -0.701973 
0.008298 -0.852584 -0.843622 
0.006086 -0.706864 -0.964624 
0.004206 -0.544241 -1.061925 
0.002115 -0.369101 -1.133424 
0.000215 -0.185430 -1.177798 
-0.004755 0.193205 -1.181924 
-0.006600 0.377390 -1.140730 
-0.008430 0.554258 -1.071686 
-0.010060 0.717675 -0.976109 
-0.011343 0.864288 -0.855320 
-0.013087 0.989718 -0.713451 
-0.013521 1.091004 -0.552799 
-0.014011 1.164094 -0.377436 
-0.014331 1.207927 -0.193036 
-0.013690 1.203680 0.185094 
-0.012778 1.156334 0.368803 
-0.011517 1.081056 0.541966 
-0.010611 0.978655 0.702028 
-0.008452 0.852843 0.843823 
-0.005721 0.706902 0.964527 
-0.004254 0.544254 1.061925 
-0.002216 0.369052 1.133181 
-0.000228 0.185236 1.177412 
0.004564 -0.192490 1.181270 
0.006591 -0.377594 1.140326 
0.008604 -0.554059 1.071651 
0.010137 -0.717712 0.976090 
0.011323 -0.864414 0.855499 
0.013192 -0.989866 0.713557 
0.013619 -1.091208 0.552900 
0.014117 -1.164207 0.377448 
0.014408 -1.207959 0.193090 
-1.168920 0.013296 0.183479 
-1.124849 0.012413 0.364928 
-1.053642 0.010805 0.537378 
-0.956483 0.009536 0.697113 
-0.836138 0.007145 0.839454 
-0.695244 0.005061 0.960814 
-0.536014 0.003104 1.059374 
-0.364916 0.000828 1.132828 
-0.183742 -0.001340 1.177954 
0.188376 -0.005989 1.180252 
0.370146 -0.008209 1.137025 
0.542629 -0.009876 1.065674 
0.701748 -0.010952 0.967707 
0.843093 -0.012704 0.845880 
0.963310 -0.013987 0.703125 
1.059098 -0.014185 0.543415 
1.129162 -0.014578 0.370074 
1.171350 -0.014581 0.188423 
1.168715 -0.013275 -0.183431 
1.124589 -0.012364 -0.364770 
1.053170 -0.010776 -0.537269 
0.956180 -0.009367 -0.696977 
0.836081 -0.007162 -0.839231 
0.695416 -0.005271 -0.960825 
0.536141 -0.002949 -1.059790 
0.364563 -0.000691 -1.133185 
0.184083 0.000848 -1.178232 
-0.188340 0.005788 -1.180864 
-0.370201 0.008625 -1.137815 
-0.542821 0.009813 -1.065889 
-0.702144 0.011461 -0.967615 
-0.843081 0.012595 -0.845743 
-0.963211 0.013818 -0.703011 
-1.058967 0.014017 -0.543304 
-1.129070 0.014437 -0.369999 
-1.171394 0.014491 -0.188372 
0.818595 -0.418483 -0.409162 
0.431218 -0.817302 -0.438631 
0.394366 -0.386029 -0.830070 
0.888677 -0.319994 -0.330949 
0.313869 -0.919552 -0.330171 
0.679580 -0.351413 -0.642334 
0.566233 -0.651356 -0.534727 
0.875993 -0.508592 -0.102996 
0.189501 -0.628521 -0.757355 
0.606022 -0.182175 -0.762380 
0.863418 -0.174167 -0.453437 
0.222179 -0.871029 -0.475807 
0.942613 -0.158984 -0.260074 
0.799396 -0.311226 -0.510952 
0.694233 -0.670866 -0.338772 
0.482690 -0.894023 -0.196850 
0.645246 -0.789699 -0.169571 
0.529533 -0.491699 -0.696527 
0.787474 -0.157442 -0.578284 
0.571750 -0.781143 -0.344014 
0.974262 -0.144547 -0.108619 
0.782984 -0.647137 -0.146641 
0.171909 -0.971138 -0.272780 
0.935501 -0.330821 -0.153665 
0.738895 -0.491267 -0.481258 
0.288898 -0.979909 -0.146929 
0.546867 -0.311643 -0.771121 
0.344473 -0.721592 -0.620459 
0.838362 -0.493730 -0.284424 
0.492582 -0.189189 -0.838558 
0.160131 -0.770194 -0.629887 
0.199930 -0.486168 -0.847430 
0.178004 -0.320229 -0.923218 
0.357104 -0.568451 -0.746413 
0.641451 -0.499239 -0.594674 
0.145142 -1.009383 -0.119876 
0.455086 -0.617799 -0.655357 
0.326203 -0.219613 -0.910426 
0.201425 -0.133233 -0.961541 
0.479323 0.581764 -0.634624 
0.479128 0.784258 -0.359439 
0.782082 0.360203 -0.448189 
0.382147 0.470275 -0.782838 
0.327064 0.893310 -0.305132 
0.277561 0.316189 -0.898809 
0.161530 0.167926 -0.965891 
0.740674 0.205226 -0.601976 
0.646609 0.530064 -0.502396 
0.476689 0.845811 -0.172579 
0.585464 0.169505 -0.769739 
0.162687 0.893244 -0.446120 
0.154043 0.483847 -0.862385 
0.530671 0.681156 -0.468674 
0.130050 0.971527 -0.261700 
0.378478 0.137857 -0.901982 
0.112366 0.330627 -0.935352 
0.598475 0.696727 -0.334222 
0.098661 0.638514 -0.773908 
0.148769 0.769054 -0.636462 
0.282688 0.631814 -0.719076 
0.826480 0.470461 -0.168232 
0.587568 0.388052 -0.680762 
0.353920 0.772077 -0.520064 
0.732186 0.542387 -0.332469 
0.103890 1.003228 -0.116600 
0.266120 0.956404 -0.144240 
0.677966 0.679940 -0.148112 
0.924648 0.129331 -0.279634 
0.456733 0.303300 -0.818693 
0.826819 0.395611 -0.311179 
0.854302 0.155702 -0.441732 
0.912522 0.274888 -0.172926 
0.870079 0.268135 -0.334669 
0.960836 0.109112 -0.127461 
0.700886 0.375005 -0.563018 
0.446349 0.450015 0.750093 
0.429616 0.800432 0.376201 
0.806837 0.394185 0.367263 
0.324510 0.305229 0.880666 
0.281897 0.908982 0.290281 
0.880664 0.319054 0.252953 
0.942209 0.147878 0.210091 
0.529798 0.622334 0.535714 
0.099751 0.479554 0.861135 
0.738889 0.148851 0.632209 
0.436165 0.147908 0.875814 
0.404693 0.883851 0.177584 
0.836272 0.455071 0.165595 
0.258597 0.132917 0.947899 
0.231720 0.965019 0.137174 
0.912198 0.302900 0.123058 
0.603388 0.144079 0.768096 
0.504506 0.279423 0.797791 
0.302570 0.624887 0.700721 
0.745631 0.606458 0.111593 
0.640664 0.712367 0.165668 
0.569516 0.482182 0.630850 
0.177254 0.755172 0.621287 
0.732453 0.562622 0.293057 
0.603528 0.673724 0.360032 
0.370381 0.714981 0.566370 
0.526018 0.796729 0.216906 
0.089353 1.001826 0.118354 
0.111852 0.117282 0.978800 
0.447546 0.586114 0.646479 
0.138550 0.612876 0.767289 
0.680235 0.491948 0.491402 
0.626233 0.335477 0.674075 
0.152251 0.304858 0.929206 
0.144863 0.959447 0.263087 
0.764154 0.302663 0.525668 
0.825149 0.121190 0.520714 
0.197156 0.869603 0.446449 
0.866546 0.214319 0.396206 
0.245745 0.472207 0.831705 
0.531783 -0.824254 0.351937 
0.338295 -0.391985 0.870959 
0.348309 -0.907934 0.369174 
0.161391 -0.482695 0.875631 
0.514656 -0.176548 0.843573 
0.447936 -0.920814 0.196539 
0.620089 -0.576828 0.585432 
0.270926 -0.188478 0.946320 
0.249328 -0.989245 0.187379 
0.916196 -0.401856 0.168247 
0.776411 -0.429070 0.503685 
0.752721 -0.693770 0.148534 
0.865966 -0.213045 0.460985 
0.949336 -0.206265 0.237982 
0.513504 -0.343928 0.803297 
0.583504 -0.710185 0.480237 
0.629690 -0.811310 0.171112 
0.723212 -0.671445 0.312398 
[...]
POINT_DATA 1108
SCALARS u float 1
LOOKUP_TABLE default
0.027231
0.026811
0.031243
0.031352
0.009304
0.008952
0.021089
0.021160
0.025473
0.025824
0.007518
0.007117
0.030925
0.034017
0.034447
0.032001
0.027794
0.025143
0.026216
0.036298
0.040422
0.040948
0.037673
0.032500
0.027147
0.024857
0.030534
0.033765
0.033832
0.031525
0.027703
0.025166
0.026437
0.036532
0.040402
0.041091
0.037837
0.032543
0.027429
0.025131
0.012075
0.016194
0.021469
0.026272
0.030342
0.032566
0.032672
0.028284
0.024224
0.019555
0.015411
0.012104
0.009458
0.008323
0.011548
0.016018
0.021274
0.025945
0.030031
0.032283
0.032517
0.028161
0.024130
0.019930
0.015545
0.012292
0.009836
0.008564
0.026375
0.024949
0.022736
0.020219
0.017412
0.013888
0.010673
0.009911
0.013117
0.016541
0.019557
0.022670
0.024976
0.026346
0.026159
0.024947
0.022642
0.020189
0.017145
0.013343
0.010359
0.009916
0.012654
0.016308
0.019808
0.022996
0.025308
0.026719
0.026676
0.031174
0.033445
0.032432
0.029020
0.024193
0.019098
0.016670
0.019629
0.031847
0.036816
0.039743
0.038432
0.034199
0.029245
0.023002
0.017690
0.017198
0.026216
0.030689
0.033101
0.031833
0.029009
0.024384
0.019277
0.016670
0.019680
0.031845
0.036878
0.039819
0.038530
0.034448
0.029509
0.023258
0.017834
0.017153
0.023148
0.019782
0.016211
0.013116
0.010458
0.008818
0.008428
0.008304
0.007776
0.007974
0.009328
0.012918
0.016771
0.020571
0.024375
0.026871
0.027589
0.027368
0.023127
0.019857
0.016763
0.013599
0.010592
0.008647
0.008452
0.008569
0.008203
0.007695
0.009498
0.012882
0.016839
0.020716
0.024581
0.027116
0.027738
0.027445
0.021463
0.021410
0.020346
0.019085
0.016939
0.015090
0.013540
0.010333
0.008397
0.007813
0.009265
0.010709
0.011940
0.014069
0.016030
0.017473
0.018964
0.020140
0.021616
0.021625
0.020733
0.019289
0.017108
0.015041
0.013121
0.010245
0.007930
0.007274
0.009311
0.010544
0.012323
0.014002
0.015946
0.017423
0.018918
0.020044
0.022470
0.027925
0.011632
0.022713
0.030851
0.017221
0.023187
0.028926
0.014037
0.015542
0.021773
0.024711
0.024211
0.020090
0.029448
0.036923
0.036550
0.016124
0.019835
0.031506
0.025104
0.032471
0.030027
0.024929
0.022276
0.035522
0.013950
0.020255
0.025919
0.013358
0.018241
0.010423
0.008519
0.014841
0.019053
0.032903
0.018411
0.010089
0.008943
0.023094
0.025693
0.030146
0.019083
0.025014
0.014810
0.011345
0.025361
0.027871
0.026488
0.020043
0.026438
0.017488
0.026047
0.028288
0.014334
0.014139
0.028630
0.021435
0.024038
0.020286
0.034381
0.023732
0.023380
0.031593
0.028462
0.025624
0.031700
0.029132
0.018492
0.032427
0.028123
0.032765
0.031135
0.029736
0.027515
0.019863
0.024670
0.030989
0.014783
0.023173
0.031561
0.029388
0.025378
0.012638
0.023084
0.015415
0.025036
0.033864
0.011548
0.024425
0.032733
0.019361
0.018479
0.018370
0.033261
0.030758
0.024510
0.017696
0.031673
0.029020
0.021662
0.027559
0.026808
0.009532
0.022030
0.014898
0.028377
0.023344
0.011198
0.023898
0.027181
0.024821
0.020889
0.027963
0.014887
0.042472
0.021462
0.041162
0.021127
0.018077
0.042827
0.033827
0.014482
0.039598
0.028418
0.029535
0.037637
0.024434
0.025424
0.022827
0.038824
0.041905
0.038068
0.011124
0.015437
0.034391
0.036991
0.039133
0.032789
0.035925
0.022783
0.038818
0.029733
0.034934
0.032144
0.027028
0.034562
0.027840
0.027175
0.020390
0.017646
0.027721
0.035449
0.023234
0.025694
0.029371
0.019095
0.025059
0.015200
0.011621
0.025194
0.027747
0.026480
0.020192
0.026647
0.017508
0.025717
0.028370
0.014634
0.014122
0.028313
0.021582
0.024257
0.020564
0.033895
0.023729
0.023625
0.031684
0.028642
0.025663
0.031147
0.028685
0.018621
0.032043
0.027561
0.032205
0.030450
0.029412
0.027224
0.019687
0.024712
0.030948
0.014278
0.022862
0.031579
0.029225
0.025172
0.012296
0.023193
0.014939
0.024958
0.033237
0.011278
0.024562
0.032510
0.019474
0.018435
0.018426
0.032819
0.030186
0.024212
0.017798
0.031788
0.028845
0.021599
0.027480
0.026887
0.009122
0.022004
0.014750
0.028018
0.023245
0.010875
0.023731
0.027108
0.024912
0.020801
0.028297
0.014981
0.042130
0.021150
0.040750
0.020554
0.017933
0.042560
0.033470
0.013959
0.039363
0.028162
0.029288
0.037422
0.024256
0.025214
0.022575
0.038454
0.041709
0.037687
0.010616
0.015067
0.033985
0.036596
0.038799
0.032575
0.035473
0.022578
0.038387
0.029217
0.034623
0.031871
0.026755
0.034196
0.027573
0.026812
0.020334
0.017339
0.027470
0.035280
0.022382
0.028304
0.011831
0.022534
0.031289
0.017183
0.023330
0.028756
0.014259
0.015572
0.021489
0.025223
0.023949
0.019954
0.029345
0.036891
0.035982
0.016270
0.019678
0.031151
0.024759
0.032458
0.029958
0.024632
0.022225
0.035448
0.014038
0.020602
0.025865
0.013545
0.018522
0.010694
0.008680
0.015164
0.019110
0.032628
0.018724
0.010246
0.009085
0.035197
0.027545
0.017199
0.020147
0.039390
0.017250
0.037061
0.012425
0.016714
0.035227
0.008168
0.017501
0.029767
0.023933
0.015553
0.031611
0.011915
0.018399
0.039997
0.030425
0.028291
0.041473
0.016153
0.032988
0.015287
0.032475
0.020392
0.039591
0.017104
0.032693
0.021801
0.022548
0.027925
0.032380
0.026736
0.039155
0.024079
0.014292
0.026354
0.016765
0.021100
0.013432
0.022925
0.019126
0.035172
0.018451
0.037100
0.035239
0.037911
0.024941
0.041115
0.029191
0.036723
0.030564
0.017846
0.034213
0.023640
0.014644
0.033557
0.010525
0.010321
0.009305
0.025267
0.018870
0.012395
0.016641
0.030808
0.018118
0.029508
0.010897
0.018745
0.028729
0.008711
0.022859
0.014983
0.012901
0.019293
0.024302
0.016026
0.012138
0.030100
0.021256
0.021330
0.032247
0.021658
0.025888
0.010318
0.022149
0.016949
0.032157
0.022695
0.025438
0.016139
0.014641
0.020399
0.022938
0.017653
0.029099
0.016436
0.018909
0.020857
0.011810
0.019036
0.015720
0.018775
0.015512
0.026852
0.016865
0.028782
0.026392
0.030580
0.018178
0.032429
0.019141
0.026345
0.024840
0.022662
0.015748
0.025133
0.014567
0.026819
0.012897
0.009056
0.010500
0.022567
0.022393
0.016249
0.012933
0.027258
0.011225
0.027654
0.015393
0.009053
0.023215
0.018189
0.029248
0.013695
0.013759
0.032662
0.011124
0.021774
0.013252
0.024400
0.018470
0.013903
0.020472
0.031372
0.010437
0.014404
0.023710
0.011316
0.022784
0.027687
0.009097
0.020114
0.017617
0.025262
0.025913
0.020717
0.028316
0.016642
0.030763
0.010410
0.015394
0.024681
0.012182
0.027175
0.014502
0.030718
0.013743
0.030207
0.019982
0.015797
0.014527
0.024902
0.026477
0.020373
0.024136
0.007761
0.017589
0.028865
0.019042
0.016950
0.017353
0.017166
0.016275
0.011851
0.020174
0.028800
0.008422
0.015012
0.007973
0.015551
0.009073
0.017958
0.012036
0.027974
0.017432
0.032178
0.008280
0.024089
0.018106
0.036143
0.012762
0.009982
0.011911
0.015347
0.007716
0.017589
0.035177
0.015499
0.010072
0.016786
0.008061
0.016305
0.024981
0.024232
0.033497
0.017843
0.026213
0.020261
0.015160
0.015800
0.008157
0.009355
0.030200
0.022292
0.031220
0.013239
0.034400
0.009051
0.021786
0.007099
0.017417
0.011835
0.014921
0.009478
0.014118
0.011168
0.015828
0.018425
0.008127
0.021113
0.011604
0.030852
0.014256
0.028230
0.027696
0.026781
0.020792
0.013559
0.029376
0.016394
0.027598
0.015412
0.027496
0.016887
0.014172
0.020580
0.017296
0.013447
0.013021
0.020857
0.010420
0.013815
0.023491
0.030096
0.032181
0.022302
0.015328
0.022840
0.011945
0.024158
0.031152
0.016879
0.018132
0.023280
0.017237
0.010471
0.008909
0.020206
0.017058
0.020615
0.023318
0.019065
0.028409
0.011489
0.017051
0.016126
0.013339
0.015498
0.010619
0.024272
0.015372
0.026507
0.015312
0.027701
0.030290
0.031291
0.019438
0.022479
0.026284
0.020406
0.023914
0.024667
0.018521
0.010604
0.027239
0.008703
0.007189
0.011907
0.020038
0.026392
0.008443
0.015114
0.007974
0.015667
0.029824
0.008936
0.018061
0.029215
0.011826
0.028103
0.017116
0.008238
0.024276
0.017366
0.036487
0.012862
0.010014
0.011835
0.015461
0.007692
0.017819
0.023127
0.015406
0.009882
0.016916
0.007901
0.016372
0.025049
0.017461
0.025191
0.019950
0.014880
0.015845
0.008076
0.009383
0.030809
0.021403
0.031106
0.013086
0.034317
0.008870
0.021792
0.007094
0.017549
0.011922
0.015064
0.009418
0.014210
0.011042
0.015782
0.018429
0.007722
0.011291
0.020881
0.032068
0.014351
0.023337
0.035626
0.033871
0.035549
0.027900
0.015770
0.020381
0.039717
0.017448
0.037309
0.016809
0.035355
0.017477
0.030071
0.015651
0.024217
0.015714
0.031959
0.012123
0.018013
0.040287
0.030772
0.028535
0.041691
0.016253
0.033293
0.011207
0.032816
0.020638
0.039793
0.017141
0.032842
0.022053
0.013368
0.008862
0.021659
0.028163
0.032754
0.026763
0.039482
0.024361
0.014454
0.026625
0.016019
0.020701
0.013478
0.023193
0.019285
0.035515
0.018676
0.037473
0.035609
0.038113
0.025215
0.041402
0.029462
0.037039
0.030696
0.017878
0.023566
0.034502
0.010433
0.033834
0.008424
0.007513
0.015142
0.025093
0.028867
0.016999
0.011449
0.018125
0.010897
0.029435
0.022928
0.008554
0.026660
0.026771
0.020828
0.024412
0.021345
0.016518
0.031864
0.023529
0.013114
0.015399
0.019839
0.011965
0.016907
0.012703
0.026386
0.019940
0.021447
0.009826
0.018830
0.009757
0.028660
0.027077
0.024852
0.022486
0.022943
0.015045
0.016908
0.026845
0.018299
0.029996
0.026881
0.030304
0.021021
0.020869
0.017945
0.017299
0.014298
0.015346
0.015398
0.017165
0.011528
0.018677
0.017730
0.008179
0.022815
0.020219
0.022018
0.031634
0.019090
0.032320
0.024631
0.030181
0.009249
0.020724
0.028669
0.017150
0.021501
0.008551
0.011050
0.029328
0.012158
0.007822
0.022118
0.028898
0.022397
0.022715
0.027086
0.028301
0.020914
0.025538
0.016843
0.014367
0.038775
0.032282
0.031222
0.028820
0.028709
0.030775
0.028462
0.029455
0.029763
0.025334
0.010907
0.016231
0.023019
0.037025
0.043298
0.025616
0.030576
0.037334
0.030310
0.028653
0.023728
0.018396
0.017669
0.034648
0.025695
0.018580
0.028115
0.028448
0.011478
0.029830
0.029248
0.021564
0.026871
0.008537
0.011983
0.021460
0.016633
0.035918
0.030970
0.026958
0.030754
0.012916
0.012326
0.009622
0.021834
0.033868
0.010180
0.015674
0.027787
0.031217
0.030204
0.028090
0.010527
0.017875
0.025270
0.013677
0.011322
0.025220
0.026305
0.015655
0.020371
0.025439
0.029034
0.026887
0.031865
0.033277
0.041338
0.035873
0.037963
0.023078
0.032545
0.039681
0.027646
0.017972
0.022070
0.015200
0.010149
0.011631
0.033354
0.016202
0.027869
0.010997
