# vtk DataFile Version 2.0
Unstructured Grid Example
ASCII
DATASET UNSTRUCTURED_GRID
POINTS 1108 float
1.009968 0.012919 -0.002120 
-1.009812 -0.012737 0.001993 
0.012866 0.986640 0.003520 
-0.012860 -0.986550 -0.003555 
-0.002107 0.003427 1.003927 
0.002152 -0.003563 -1.003455 
1.209357 0.008535 -0.001406 
-1.209349 -0.008622 0.001321 
0.008522 1.187372 0.002196 
-0.008701 -1.187256 -0.002319 
-0.001361 0.002284 1.203683 
0.001341 -0.002212 -1.203436 
0.995067 0.207070 -0.001309 
0.941160 0.393797 -0.000635 
0.849962 0.565125 0.000032 
0.725061 0.714226 0.000934 
0.572006 0.834451 0.001745 
0.397506 0.921586 0.002419 
0.208528 0.972943 0.002981 
-0.182424 0.963290 0.003813 
-0.370048 0.903370 0.004036 
-0.544058 0.809941 0.004025 
-0.697749 0.686718 0.003868 
-0.825469 0.537227 0.003632 
-0.922861 0.366631 0.003221 
-0.985275 0.181008 0.002670 
-0.994853 -0.206964 0.001237 
-0.941021 -0.393727 0.000693 
-0.849604 -0.565007 -0.000110 
-0.724734 -0.714260 -0.000988 
-0.571918 -0.834633 -0.001724 
-0.397562 -0.921833 -0.002385 
-0.208643 -0.972903 -0.003060 
0.182312 -0.963214 -0.003905 
0.369964 -0.903448 -0.004096 
0.543970 -0.809907 -0.004120 
0.697557 -0.686710 -0.003937 
0.825460 -0.537210 -0.003673 
0.922718 -0.366486 -0.003315 
0.985219 -0.180838 -0.002794 
-0.004672 -0.190040 0.983216 
-0.006921 -0.375777 0.924277 
-0.008995 -0.546377 0.829776 
-0.010623 -0.695779 0.703812 
-0.011890 -0.818139 0.551439 
-0.012655 -0.909474 0.378259 
-0.013180 -0.966625 0.191147 
-0.012189 -0.969257 -0.198351 
-0.011072 -0.914893 -0.385987 
-0.009435 -0.825332 -0.559168 
-0.007461 -0.703382 -0.711252 
-0.005360 -0.554054 -0.836210 
-0.002882 -0.383104 -0.928797 
-0.000287 -0.197267 -0.985310 
0.004514 0.190212 -0.982911 
0.006839 0.375835 -0.923871 
0.008936 0.546480 -0.829808 
0.010504 0.695908 -0.703936 
0.011750 0.818251 -0.551510 
0.012539 0.909584 -0.378332 
0.013059 0.966632 -0.191191 
0.012106 0.969239 0.198201 
0.011008 0.914826 0.385761 
0.009515 0.825022 0.559166 
0.007510 0.703234 0.711211 
0.005537 0.553989 0.836161 
0.003019 0.382953 0.928992 
0.000356 0.197051 0.985561 
0.989575 0.013240 0.193890 
0.931144 0.013208 0.382440 
0.837217 0.012465 0.556153 
0.711129 0.011480 0.708244 
0.557989 0.010097 0.833175 
0.383639 0.007990 0.926260 
0.194565 0.005620 0.983906 
-0.198639 0.000701 0.985558 
-0.388159 -0.001603 0.929381 
-0.562463 -0.004423 0.837199 
-0.715237 -0.006504 0.712697 
-0.840786 -0.008652 0.560670 
-0.934014 -0.010382 0.386841 
-0.991099 -0.011745 0.198112 
-0.989542 -0.013117 -0.194024 
-0.931189 -0.013183 -0.382575 
-0.837304 -0.012355 -0.556283 
-0.711223 -0.011421 -0.708305 
-0.558206 -0.009895 -0.833040 
-0.383569 -0.007734 -0.925979 
-0.194376 -0.005626 -0.983436 
0.198828 -0.001000 -0.985361 
0.387959 0.001630 -0.929170 
0.562434 0.004318 -0.837069 
0.715392 0.006554 -0.712733 
0.841007 0.008691 -0.560726 
0.934077 0.010578 -0.386925 
0.991099 0.011996 -0.198314 
1.198753 0.196427 -0.001030 
1.157615 0.380163 -0.000569 
1.086779 0.554772 -0.000121 
0.987803 0.715118 0.000308 
0.863932 0.856891 0.000531 
0.718774 0.976488 0.001081 
0.556097 1.071028 0.001409 
0.380295 1.138308 0.001712 
0.196242 1.177237 0.002065 
-0.178491 1.168511 0.002399 
-0.360576 1.121706 0.002703 
-0.533174 1.048360 0.002688 
-0.693560 0.951012 0.002850 
-0.838036 0.830910 0.002562 
-0.962476 0.689948 0.002382 
-1.064269 0.531997 0.002277 
-1.140965 0.360330 0.002031 
-1.189976 0.178651 0.001776 
-1.198509 -0.196294 0.001000 
-1.157434 -0.379896 0.000434 
-1.086584 -0.554695 0.000064 
-0.987554 -0.714823 -0.000325 
-0.864071 -0.856612 -0.000569 
-0.718910 -0.976447 -0.001161 
-0.556179 -1.071184 -0.001430 
-0.380325 -1.138443 -0.001777 
-0.196248 -1.177180 -0.001993 
0.178468 -1.168532 -0.002444 
0.360451 -1.121728 -0.002693 
0.533128 -1.048342 -0.002756 
0.693500 -0.950982 -0.002874 
0.837936 -0.830801 -0.002613 
0.962341 -0.689844 -0.002420 
1.064173 -0.531874 -0.002318 
1.140832 -0.360253 -0.002068 
1.189922 -0.178662 -0.001817 
-0.008264 -1.174044 -0.189247 
-0.007707 -1.132225 -0.372128 
-0.006988 -1.062515 -0.546313 
-0.006268 -0.966418 -0.707378 
-0.005014 -0.846077 -0.851493 
-0.003678 -0.704423 -0.974565 
-0.002542 -0.545120 -1.073608 
-0.001278 -0.371859 -1.146008 
-0.000130 -0.189106 -1.189714 
0.002874 0.184408 -1.187221 
0.003988 0.366851 -1.141593 
0.005094 0.539066 -1.067711 
0.006079 0.697890 -0.967625 
0.006854 0.839005 -0.844424 
0.007908 0.959401 -0.700442 
0.008170 1.056037 -0.539948 
0.008466 1.127475 -0.366823 
0.008660 1.171508 -0.184510 
0.008272 1.174075 0.189309 
0.007721 1.132164 0.372039 
0.006959 1.062048 0.546494 
0.006412 0.966086 0.707345 
0.005107 0.845921 0.851371 
0.003457 0.704400 0.974623 
0.002571 0.545112 1.073609 
0.001339 0.371889 1.146154 
0.000138 0.189223 1.189948 
-0.002758 -0.184840 1.187616 
-0.003983 -0.366727 1.141837 
-0.005199 -0.539187 1.067731 
-0.006126 -0.697868 0.967636 
-0.006842 -0.838929 0.844316 
-0.007971 -0.959312 0.700379 
-0.008229 -1.055914 0.539887 
-0.008530 -1.127406 0.366816 
-0.008706 -1.171489 0.184477 
-1.195079 -0.008034 0.190285 
-1.151189 -0.007501 0.374381 
-1.078614 -0.006529 0.549267 
-0.979484 -0.005762 0.710315 
-0.856015 -0.004318 0.854011 
-0.711444 -0.003058 0.976867 
-0.550091 -0.001875 1.075150 
-0.374388 -0.000501 1.146368 
-0.190126 0.000810 1.189620 
0.187326 0.003619 1.188232 
0.371228 0.004960 1.143832 
0.546094 0.005968 1.071343 
0.707514 0.006618 0.972702 
0.851812 0.007677 0.850129 
0.975358 0.008452 0.706682 
1.075317 0.008571 0.545619 
1.148583 0.008809 0.371271 
1.193611 0.008811 0.187298 
1.195203 0.008021 -0.190314 
1.151346 0.007471 -0.374476 
1.078899 0.006512 -0.549332 
0.979667 0.005660 -0.710397 
0.856049 0.004328 -0.854146 
0.711341 0.003185 -0.976860 
0.550014 0.001782 -1.074899 
0.374601 0.000418 -1.146152 
0.189920 -0.000513 -1.189452 
-0.187348 -0.003497 -1.187862 
-0.371195 -0.005212 -1.143354 
-0.545978 -0.005929 -1.071213 
-0.707275 -0.006926 -0.972757 
-0.851819 -0.007610 -0.850211 
-0.975418 -0.008349 -0.706751 
-1.075396 -0.008470 -0.545686 
-1.148639 -0.008724 -0.371317 
-1.193584 -0.008756 -0.187328 
0.818979 -0.383613 -0.418290 
0.408909 -0.779087 -0.445620 
0.394070 -0.372288 -0.842694 
0.895601 -0.285496 -0.340415 
0.286055 -0.879271 -0.337476 
0.683730 -0.326601 -0.653753 
0.552826 -0.617646 -0.542951 
0.866490 -0.464053 -0.111903 
0.175568 -0.614187 -0.767724 
0.617213 -0.165029 -0.776609 
0.879986 -0.145620 -0.464866 
0.197600 -0.840867 -0.483399 
0.960828 -0.126042 -0.269647 
0.806684 -0.281712 -0.521654 
0.677278 -0.627473 -0.346613 
0.453248 -0.843237 -0.204762 
0.619511 -0.737719 -0.178177 
0.525372 -0.468553 -0.707297 
0.803385 -0.133187 -0.591367 
0.549183 -0.736510 -0.351313 
0.992944 -0.109755 -0.116520 
0.765549 -0.598824 -0.155326 
0.141302 -0.934756 -0.280526 
0.940186 -0.292078 -0.162410 
0.734788 -0.456927 -0.490259 
0.256844 -0.933596 -0.155598 
0.551835 -0.294069 -0.784055 
0.327894 -0.694897 -0.628731 
0.831982 -0.453623 -0.293353 
0.501991 -0.176756 -0.853258 
0.140335 -0.750521 -0.638687 
0.192409 -0.477283 -0.859434 
0.176559 -0.316684 -0.936337 
0.348179 -0.549015 -0.756875 
0.636805 -0.470500 -0.603986 
0.112183 -0.969084 -0.128590 
0.444338 -0.591852 -0.664502 
0.331402 -0.213486 -0.924477 
0.207284 -0.132549 -0.974620 
0.515733 0.584037 -0.641087 
0.520338 0.785045 -0.359738 
0.824522 0.380393 -0.459595 
0.411865 0.467952 -0.789815 
0.365309 0.881910 -0.300919 
0.299319 0.311416 -0.907073 
0.175551 0.161045 -0.975235 
0.774287 0.223269 -0.616117 
0.688563 0.542696 -0.511310 
0.519039 0.847998 -0.169850 
0.611977 0.180468 -0.784257 
0.196716 0.868902 -0.439164 
0.178183 0.469680 -0.864300 
0.571922 0.686009 -0.473242 
0.165329 0.944247 -0.253292 
0.397233 0.140404 -0.915042 
0.130632 0.318064 -0.940151 
0.643030 0.707390 -0.337510 
0.125658 0.617514 -0.770352 
0.180070 0.747101 -0.631427 
0.313316 0.620898 -0.720438 
0.875215 0.495822 -0.173115 
0.622523 0.397399 -0.692607 
0.390473 0.763695 -0.519393 
0.778625 0.561430 -0.339514 
0.138951 0.975284 -0.107953 
0.303702 0.941061 -0.137759 
0.725859 0.697022 -0.148880 
0.960434 0.157743 -0.289452 
0.483695 0.306973 -0.830512 
0.872273 0.419317 -0.320028 
0.890239 0.179778 -0.454551 
0.955955 0.303680 -0.179821 
0.911801 0.293548 -0.345077 
0.996218 0.140305 -0.134586 
0.740314 0.390544 -0.575366 
0.470161 0.465958 0.764027 
0.466938 0.808010 0.386971 
0.846777 0.422732 0.375095 
0.337877 0.319284 0.894311 
0.317435 0.903346 0.299628 
0.921090 0.349281 0.256909 
0.975598 0.181162 0.210153 
0.564802 0.638705 0.548530 
0.114043 0.481787 0.875342 
0.761195 0.177480 0.639575 
0.446612 0.167817 0.886112 
0.443953 0.884939 0.185993 
0.882360 0.483601 0.169254 
0.263772 0.147021 0.958738 
0.267654 0.951617 0.145209 
0.954465 0.334053 0.123718 
0.619381 0.169269 0.776725 
0.522657 0.299389 0.810070 
0.327824 0.631494 0.714398 
0.793398 0.629886 0.115679 
0.686116 0.730422 0.172221 
0.600472 0.502524 0.644039 
0.203024 0.752338 0.632854 
0.776200 0.587256 0.300881 
0.644964 0.692285 0.370322 
0.401742 0.722608 0.579253 
0.567988 0.807686 0.225459 
0.123220 0.976698 0.126792 
0.112730 0.127357 0.990271 
0.476891 0.600278 0.660165 
0.158533 0.613192 0.780398 
0.717129 0.516163 0.502581 
0.652633 0.359361 0.685696 
0.161239 0.312400 0.942810 
0.178185 0.942584 0.271755 
0.796326 0.330515 0.535190 
0.849191 0.152544 0.525665 
0.228078 0.861999 0.456889 
0.898763 0.245169 0.400979 
0.263301 0.479776 0.846018 
0.499644 -0.766375 0.335824 
0.324216 -0.361068 0.865359 
0.314602 -0.853397 0.353356 
0.142335 -0.455178 0.870295 
0.512516 -0.147628 0.843341 
0.413650 -0.862965 0.182452 
0.598778 -0.528912 0.571478 
0.264142 -0.166386 0.948716 
0.214625 -0.937668 0.174306 
0.911020 -0.357427 0.159435 
0.764867 -0.384235 0.493606 
0.728976 -0.639554 0.136599 
0.870070 -0.174312 0.456579 
0.958412 -0.166911 0.232292 
0.502818 -0.309445 0.797152 
0.556144 -0.656587 0.464173 
0.599539 -0.752760 0.157615 
0.698492 -0.617275 0.298831 
[...]
POINT_DATA 1108
SCALARS u float 1
LOOKUP_TABLE default
0.016455
0.016201
0.018879
0.018945
0.005622
0.005409
0.012743
0.012786
0.015393
0.015605
0.004543
0.004301
0.018687
0.020555
0.020815
0.019337
0.016795
0.015193
0.015841
0.021933
0.024425
0.024743
0.022765
0.019638
0.016404
0.015020
0.018451
0.020403
0.020443
0.019049
0.016740
0.015207
0.015975
0.022075
0.024413
0.024829
0.022863
0.019665
0.016574
0.015185
0.007297
0.009786
0.012973
0.015875
0.018334
0.019678
0.019743
0.017091
0.014638
0.011816
0.009312
0.007314
0.005715
0.005029
0.006978
0.009679
0.012855
0.015678
0.018146
0.019507
0.019648
0.017017
0.014581
0.012043
0.009393
0.007427
0.005943
0.005175
0.015937
0.015076
0.013738
0.012218
0.010522
0.008392
0.006449
0.005989
0.007926
0.009995
0.011818
0.013699
0.015092
0.015920
0.015807
0.015075
0.013682
0.012200
0.010360
0.008063
0.006260
0.005992
0.007646
0.009854
0.011969
0.013896
0.015293
0.016145
0.016119
0.018837
0.020210
0.019598
0.017536
0.014619
0.011540
0.010073
0.011861
0.019244
0.022247
0.024015
0.023223
0.020665
0.017672
0.013899
0.010689
0.010392
0.015841
0.018544
0.020002
0.019236
0.017529
0.014734
0.011648
0.010073
0.011892
0.019243
0.022284
0.024061
0.023282
0.020815
0.017831
0.014054
0.010776
0.010365
0.013987
0.011953
0.009796
0.007925
0.006320
0.005328
0.005093
0.005018
0.004699
0.004819
0.005636
0.007806
0.010134
0.012430
0.014729
0.016237
0.016671
0.016537
0.013975
0.011999
0.010129
0.008218
0.006401
0.005225
0.005107
0.005178
0.004957
0.004650
0.005739
0.007784
0.010175
0.012518
0.014854
0.016385
0.016761
0.016584
0.012969
0.012937
0.012294
0.011532
0.010235
0.009118
0.008182
0.006244
0.005074
0.004721
0.005599
0.006471
0.007215
0.008502
0.009686
0.010558
0.011459
0.012170
0.013061
0.013067
0.012528
0.011655
0.010337
0.009089
0.007929
0.006191
0.004792
0.004395
0.005626
0.006371
0.007447
0.008461
0.009635
0.010528
0.011431
0.012112
0.013577
0.016874
0.007029
0.013724
0.018642
0.010406
0.014011
0.017479
0.008482
0.009392
0.013156
0.014932
0.014630
0.012139
0.017794
0.022311
0.022086
0.009743
0.011986
0.019038
0.015169
0.019621
0.018144
0.015064
0.013460
0.021464
0.008429
0.012240
0.015662
0.008072
0.011022
0.006298
0.005147
0.008968
0.011513
0.019882
0.011125
0.006097
0.005404
0.013955
0.015525
0.018216
0.011531
0.015115
0.008949
0.006856
0.015325
0.016841
0.016006
0.012111
0.015975
0.010567
0.015739
0.017094
0.008661
0.008544
0.017300
0.012952
0.014525
0.012258
0.020775
0.014340
0.014127
0.019090
0.017198
0.015484
0.019155
0.017603
0.011174
0.019595
0.016994
0.019798
0.018814
0.017968
0.016626
0.012002
0.014907
0.018725
0.008933
0.014003
0.019071
0.017758
0.015335
0.007637
0.013949
0.009315
0.015128
0.020463
0.006978
0.014759
0.019779
0.011699
0.011166
0.011100
0.020098
0.018586
0.014810
0.010693
0.019139
0.017536
0.013089
0.016653
0.016199
0.005760
0.013312
0.009002
0.017147
0.014106
0.006767
0.014441
0.016425
0.014999
0.012622
0.016897
0.008995
0.025664
0.012969
0.024873
0.012766
0.010923
0.025879
0.020440
0.008751
0.023927
0.017172
0.017847
0.022743
0.014764
0.015362
0.013793
0.023460
0.025321
0.023003
0.006722
0.009328
0.020781
0.022352
0.023647
0.019813
0.021708
0.013767
0.023456
0.017967
0.021109
0.019424
0.016332
0.020885
0.016823
0.016421
0.012321
0.010663
0.016751
0.021420
0.014039
0.015526
0.017748
0.011538
0.015142
0.009185
0.007022
0.015224
0.016766
0.016001
0.012201
0.016102
0.010579
0.015540
0.017143
0.008843
0.008533
0.017109
0.013041
0.014657
0.012426
0.020481
0.014338
0.014276
0.019145
0.017307
0.015507
0.018821
0.017334
0.011252
0.019363
0.016654
0.019460
0.018400
0.017772
0.016450
0.011896
0.014933
0.018701
0.008628
0.013815
0.019082
0.017660
0.015210
0.007430
0.014014
0.009027
0.015081
0.020084
0.006815
0.014842
0.019645
0.011767
0.011140
0.011134
0.019831
0.018240
0.014630
0.010755
0.019208
0.017430
0.013052
0.016605
0.016247
0.005512
0.013296
0.008913
0.016930
0.014046
0.006571
0.014340
0.016380
0.015054
0.012569
0.017099
0.009053
0.025457
0.012780
0.024624
0.012420
0.010836
0.025717
0.020225
0.008435
0.023785
0.017017
0.017697
0.022613
0.014657
0.015236
0.013641
0.023236
0.025203
0.022773
0.006415
0.009105
0.020536
0.022114
0.023445
0.019684
0.021435
0.013643
0.023196
0.017655
0.020921
0.019258
0.016167
0.020663
0.016661
0.016201
0.012287
0.010477
0.016599
0.021319
0.013524
0.017103
0.007149
0.013617
0.018906
0.010383
0.014097
0.017376
0.008616
0.009410
0.012985
0.015242
0.014471
0.012057
0.017732
0.022292
0.021743
0.009831
0.011890
0.018824
0.014961
0.019613
0.018102
0.014884
0.013430
0.021420
0.008482
0.012449
0.015630
0.008185
0.011192
0.006462
0.005245
0.009163
0.011548
0.019716
0.011314
0.006191
0.005490
0.021268
0.016644
0.010392
0.012174
0.023802
0.010423
0.022395
0.007508
0.010100
0.021286
0.004936
0.010575
0.017987
0.014461
0.009398
0.019101
0.007200
0.011118
0.024169
0.018385
0.017095
0.025060
0.009761
0.019933
0.009237
0.019623
0.012322
0.023923
0.010335
0.019755
0.013174
0.013625
0.016874
0.019566
0.016155
0.023660
0.014550
0.008636
0.015925
0.010130
0.012750
0.008116
0.013853
0.011557
0.021253
0.011149
0.022418
0.021294
0.022908
0.015071
0.024844
0.017639
0.022190
0.018469
0.010784
0.020674
0.014285
0.008849
0.020277
0.006360
0.006237
0.005623
0.015268
0.011403
0.007490
0.010055
0.018616
0.010948
0.017831
0.006585
0.011327
0.017360
0.005264
0.013813
0.009054
0.007795
0.011658
0.014685
0.009684
0.007334
0.018188
0.012844
0.012889
0.019485
0.013087
0.015643
0.006235
0.013384
0.010242
0.019431
0.013713
0.015371
0.009752
0.008847
0.012326
0.013860
0.010667
0.017584
0.009932
0.011426
0.012603
0.007136
0.011502
0.009499
0.011345
0.009373
0.016226
0.010191
0.017392
0.015947
0.018478
0.010984
0.019595
0.011566
0.015919
0.015010
0.013694
0.009516
0.015187
0.008802
0.016206
0.007793
0.005472
0.006345
0.013636
0.013531
0.009819
0.007815
0.016471
0.006783
0.016710
0.009302
0.005470
0.014028
0.010991
0.017674
0.008275
0.008314
0.019736
0.006722
0.013157
0.008008
0.014744
0.011161
0.008401
0.012370
0.018957
0.006307
0.008704
0.014327
0.006838
0.013768
0.016730
0.005497
0.012154
0.010645
0.015265
0.015658
0.012518
0.017110
0.010056
0.018589
0.006290
0.009302
0.014914
0.007361
0.016421
0.008763
0.018561
0.008305
0.018253
0.012074
0.009546
0.008778
0.015048
0.015999
0.012311
0.014584
0.004690
0.010628
0.017442
0.011506
0.010243
0.010486
0.010373
0.009835
0.007161
0.012190
0.017403
0.005089
0.009071
0.004818
0.009397
0.005483
0.010851
0.007273
0.016903
0.010533
0.019444
0.005003
0.014556
0.010941
0.021840
0.007712
0.006032
0.007197
0.009273
0.004662
0.010628
0.021256
0.009366
0.006086
0.010143
0.004871
0.009853
0.015095
0.014643
0.020241
0.010782
0.015839
0.012243
0.009160
0.009547
0.004929
0.005653
0.018249
0.013470
0.018865
0.008000
0.020787
0.005469
0.013164
0.004290
0.010524
0.007151
0.009016
0.005727
0.008531
0.006748
0.009564
0.011134
0.004911
0.012758
0.007012
0.018643
0.008614
0.017059
0.016736
0.016183
0.012564
0.008193
0.017751
0.009906
0.016677
0.009313
0.016615
0.010204
0.008564
0.012436
0.010451
0.008125
0.007868
0.012603
0.006296
0.008348
0.014195
0.018186
0.019446
0.013476
0.009262
0.013801
0.007218
0.014598
0.018824
0.010199
0.010957
0.014067
0.010416
0.006327
0.005383
0.012210
0.010307
0.012457
0.014090
0.011520
0.017167
0.006942
0.010303
0.009745
0.008060
0.009365
0.006416
0.014667
0.009289
0.016017
0.009252
0.016739
0.018303
0.018908
0.011746
0.013583
0.015883
0.012330
0.014450
0.014905
0.011192
0.006407
0.016460
0.005259
0.004344
0.007195
0.012108
0.015947
0.005102
0.009133
0.004819
0.009467
0.018022
0.005400
0.010914
0.017654
0.007146
0.016981
0.010343
0.004978
0.014669
0.010494
0.022048
0.007772
0.006051
0.007151
0.009343
0.004648
0.010767
0.013975
0.009309
0.005971
0.010222
0.004774
0.009893
0.015136
0.010551
0.015222
0.012055
0.008992
0.009574
0.004880
0.005670
0.018617
0.012933
0.018796
0.007907
0.020736
0.005360
0.013168
0.004287
0.010604
0.007204
0.009103
0.005691
0.008586
0.006672
0.009536
0.011136
0.004666
0.006823
0.012618
0.019377
0.008672
0.014102
0.021527
0.020467
0.021481
0.016859
0.009529
0.012315
0.024000
0.010543
0.022544
0.010157
0.021364
0.010561
0.018171
0.009457
0.014633
0.009495
0.019311
0.007325
0.010885
0.024344
0.018594
0.017243
0.025192
0.009821
0.020118
0.006772
0.019830
0.012470
0.024046
0.010358
0.019845
0.013326
0.008078
0.005355
0.013088
0.017018
0.019792
0.016172
0.023857
0.014720
0.008734
0.016088
0.009680
0.012509
0.008144
0.014015
0.011653
0.021460
0.011285
0.022643
0.021517
0.023030
0.015236
0.025018
0.017803
0.022381
0.018548
0.010803
0.014240
0.020848
0.006304
0.020445
0.005090
0.004540
0.009150
0.015163
0.017443
0.010272
0.006918
0.010952
0.006585
0.017786
0.013855
0.005169
0.016109
0.016177
0.012585
0.014751
0.012898
0.009981
0.019254
0.014218
0.007924
0.009305
0.011988
0.007230
0.010216
0.007676
0.015944
0.012049
0.012960
0.005938
0.011378
0.005896
0.017318
0.016362
0.015017
0.013587
0.013864
0.009091
0.010217
0.016221
0.011057
0.018125
0.016243
0.018312
0.012702
0.012610
0.010844
0.010453
0.008639
0.009273
0.009304
0.010372
0.006966
0.011286
0.010713
0.004942
0.013786
0.012218
0.013305
0.019115
0.011535
0.019530
0.014884
0.018237
0.005589
0.012523
0.017323
0.010363
0.012992
0.005167
0.006677
0.017722
0.007347
0.004726
0.013365
0.017462
0.013533
0.013726
0.016367
0.017101
0.012638
0.015432
0.010177
0.008682
0.023430
0.019507
0.018866
0.017415
0.017348
0.018596
0.017199
0.017799
0.017985
0.015308
0.006591
0.009808
0.013910
0.022373
0.026163
0.015479
0.018476
0.022560
0.018315
0.017314
0.014338
0.011116
0.010676
0.020936
0.015527
0.011227
0.016989
0.017190
0.006936
0.018025
0.017674
0.013030
0.016237
0.005158
0.007241
0.012968
0.010051
0.021704
0.018714
0.016290
0.018584
0.007804
0.007448
0.005814
0.013194
0.020465
0.006152
0.009471
0.016791
0.018863
0.018251
0.016974
0.006361
0.010801
0.015270
0.008265
0.006842
0.015239
0.015895
0.009460
0.012309
0.015372
0.017544
0.016247
0.019255
0.020108
0.024979
0.021677
0.022940
0.013945
0.019666
0.023978
0.016705
0.010860
0.013336
0.009184
0.006133
0.007028
0.020154
0.009790
0.016840
0.006645
