# vtk DataFile Version 2.0
Unstructured Grid Example
ASCII
DATASET UNSTRUCTURED_GRID
POINTS 1108 float
0.986260 -0.017808 0.002922 
-0.986475 0.017557 -0.002748 
-0.017735 1.018416 -0.004853 
0.017727 -1.018540 0.004900 
0.002904 -0.004724 0.994587 
-0.002966 0.004912 -0.995238 
1.187101 -0.011765 0.001939 
-1.187114 0.011886 -0.001820 
-0.011748 1.217407 -0.003028 
0.011994 -1.217567 0.003196 
0.001877 -0.003148 1.194923 
-0.001848 0.003049 -1.195264 
0.961099 0.178577 0.001805 
0.900060 0.367364 0.000875 
0.805979 0.542399 -0.000045 
0.682358 0.697293 -0.001287 
0.532914 0.827360 -0.002405 
0.362251 0.927041 -0.003335 
0.176568 0.991595 -0.004109 
-0.212550 1.004902 -0.005255 
-0.400101 0.952151 -0.005564 
-0.571440 0.861146 -0.005548 
-0.720006 0.735211 -0.005332 
-0.839741 0.580855 -0.005006 
-0.925284 0.404810 -0.004440 
-0.974597 0.214502 -0.003680 
-0.961393 -0.178723 -0.001705 
-0.900251 -0.367460 -0.000956 
-0.806473 -0.542562 0.000152 
-0.682808 -0.697246 0.001362 
-0.533036 -0.827109 0.002376 
-0.362174 -0.926701 0.003288 
-0.176408 -0.991651 0.004218 
0.212705 -1.005006 0.005383 
0.400217 -0.952043 0.005646 
0.571561 -0.861193 0.005680 
0.720270 -0.735223 0.005426 
0.839753 -0.580879 0.005063 
0.925480 -0.405011 0.004569 
0.974674 -0.214737 0.003851 
0.006440 -0.202052 0.977434 
0.009540 -0.392204 0.923331 
0.012398 -0.568243 0.833804 
0.014643 -0.722722 0.711649 
0.016390 -0.849845 0.561264 
0.017444 -0.943736 0.388783 
0.018168 -1.000304 0.200525 
0.016802 -0.996676 -0.190595 
0.015262 -0.936267 -0.378130 
0.013005 -0.839930 -0.550611 
0.010285 -0.712241 -0.701393 
0.007388 -0.557661 -0.824935 
0.003973 -0.382104 -0.917101 
0.000395 -0.192089 -0.974548 
-0.006222 0.201815 -0.977856 
-0.009428 0.392124 -0.923892 
-0.012317 0.568101 -0.833760 
-0.014479 0.722543 -0.711477 
-0.016197 0.849691 -0.561167 
-0.017284 0.943586 -0.388682 
-0.018001 1.000295 -0.200465 
-0.016688 0.996701 0.190802 
-0.015174 0.936359 0.378442 
-0.013116 0.840357 0.550614 
-0.010352 0.712445 0.701450 
-0.007632 0.557750 0.825003 
-0.004161 0.382311 0.916832 
-0.000491 0.192388 0.974202 
0.968669 -0.018250 0.196745 
0.913866 -0.018206 0.383018 
0.823547 -0.017182 0.554766 
0.701562 -0.015825 0.705539 
0.552237 -0.013918 0.829119 
0.381366 -0.011014 0.920598 
0.195815 -0.007746 0.976484 
-0.190199 -0.000966 0.974206 
-0.375136 0.002209 0.916295 
-0.546069 0.006097 0.823571 
-0.695900 0.008966 0.699401 
-0.818627 0.011926 0.548541 
-0.909910 0.014310 0.376953 
-0.966568 0.016190 0.190925 
-0.968715 0.018081 -0.196560 
-0.913803 0.018172 -0.382832 
-0.823428 0.017031 -0.554588 
-0.701432 0.015744 -0.705455 
-0.551937 0.013640 -0.829305 
-0.381462 0.010661 -0.920985 
-0.196075 0.007755 -0.977132 
0.189938 0.001378 -0.974478 
0.375412 -0.002246 -0.916587 
0.546109 -0.005952 -0.823751 
0.695686 -0.009034 -0.699351 
0.818322 -0.011981 -0.548464 
0.909823 -0.014581 -0.376837 
0.966568 -0.016536 -0.190647 
1.166579 0.175721 0.001420 
1.118734 0.357942 0.000784 
1.044987 0.531028 0.000167 
0.947411 0.691868 -0.000424 
0.827294 0.837001 -0.000732 
0.686827 0.963008 -0.001490 
0.529201 1.066699 -0.001943 
0.357760 1.145348 -0.002360 
0.175977 1.196238 -0.002847 
-0.200445 1.208267 -0.003307 
-0.384942 1.168232 -0.003726 
-0.560799 1.097945 -0.003705 
-0.721583 0.998125 -0.003928 
-0.862991 0.872813 -0.003532 
-0.982322 0.726563 -0.003283 
-1.076015 0.562420 -0.003138 
-1.141685 0.385281 -0.002799 
-1.178678 0.200225 -0.002448 
-1.166916 -0.175904 -0.001379 
-1.118984 -0.358310 -0.000598 
-1.045256 -0.531133 -0.000088 
-0.947754 -0.692274 0.000449 
-0.827103 -0.837384 0.000785 
-0.686640 -0.963064 0.001600 
-0.529088 -1.066484 0.001972 
-0.357719 -1.145162 0.002450 
-0.175968 -1.196317 0.002747 
0.200476 -1.208237 0.003370 
0.385113 -1.168203 0.003712 
0.560862 -1.097970 0.003799 
0.721666 -0.998166 0.003962 
0.863129 -0.872964 0.003602 
0.982508 -0.726706 0.003336 
1.076149 -0.562591 0.003195 
1.141868 -0.385386 0.002851 
1.178752 -0.200209 0.002505 
0.011391 -1.200640 -0.185619 
0.010623 -1.153733 -0.369018 
0.009633 -1.078434 -0.542687 
0.008639 -0.976889 -0.702536 
0.006912 -0.851906 -0.844442 
0.005069 -0.706610 -0.965659 
0.003504 -0.544332 -1.063142 
0.001761 -0.369388 -1.134734 
0.000179 -0.185813 -1.179039 
-0.003961 0.192289 -1.182476 
-0.005497 0.376293 -1.140820 
-0.007022 0.552676 -1.071272 
-0.008379 0.715615 -0.975225 
-0.009448 0.861655 -0.854186 
-0.010901 0.986561 -0.712096 
-0.011263 1.087363 -0.551461 
-0.011671 1.160281 -0.376331 
-0.011937 1.204135 -0.192148 
-0.011403 1.200597 0.185533 
-0.010643 1.153817 0.369140 
-0.009593 1.079077 0.542437 
-0.008838 0.977346 0.702582 
-0.007040 0.852122 0.844609 
-0.004765 0.706642 0.965578 
-0.003544 0.544343 1.063141 
-0.001846 0.369348 1.134532 
-0.000190 0.185651 1.178718 
0.003801 -0.191693 1.181931 
0.005490 -0.376462 1.140483 
0.007167 -0.552510 1.071243 
0.008444 -0.715646 0.975210 
0.009431 -0.861760 0.854334 
0.010988 -0.986685 0.712184 
0.011344 -1.087533 0.551545 
0.011758 -1.160375 0.376340 
0.012001 -1.204162 0.192193 
-1.171644 0.011075 0.184188 
-1.127592 0.010339 0.365912 
-1.056242 0.009000 0.538616 
-0.958878 0.007943 0.698487 
-0.838208 0.005952 0.840970 
-0.696931 0.004215 0.962485 
-0.537480 0.002585 1.061017 
-0.365902 0.000690 1.134238 
-0.184407 -0.001116 1.179169 
0.188266 -0.004989 1.181083 
0.370259 -0.006838 1.137734 
0.542990 -0.008226 1.066264 
0.702349 -0.009122 0.968227 
0.844001 -0.010582 0.846322 
0.964565 -0.011650 0.703495 
1.060787 -0.011815 0.543644 
1.131184 -0.012143 0.370199 
1.173668 -0.012145 0.188306 
1.171473 -0.011057 -0.184148 
1.127375 -0.010298 -0.365781 
1.055850 -0.008976 -0.538525 
0.958625 -0.007802 -0.698375 
0.838160 -0.005966 -0.840784 
0.697074 -0.004390 -0.962494 
0.537586 -0.002456 -1.061363 
0.365609 -0.000576 -1.134535 
0.184691 0.000707 -1.179400 
-0.188236 0.004821 -1.181592 
-0.370305 0.007184 -1.138392 
-0.543150 0.008173 -1.066443 
-0.702678 0.009546 -0.968150 
-0.843991 0.010491 -0.846208 
-0.964482 0.011509 -0.703401 
-1.060678 0.011675 -0.543552 
-1.131108 0.012025 -0.370136 
-1.173705 0.012070 -0.188263 
0.818635 -0.414852 -0.410112 
0.428895 -0.813322 -0.439359 
0.394335 -0.384598 -0.831385 
0.889398 -0.316401 -0.331935 
0.310973 -0.915357 -0.330932 
0.680012 -0.348829 -0.643524 
0.564837 -0.647846 -0.535584 
0.875003 -0.503954 -0.103923 
0.188050 -0.627028 -0.758435 
0.607187 -0.180389 -0.763861 
0.865143 -0.171194 -0.454627 
0.219620 -0.867888 -0.476597 
0.944510 -0.155554 -0.261071 
0.800155 -0.308152 -0.512067 
0.692468 -0.666347 -0.339589 
0.479624 -0.888734 -0.197674 
0.642566 -0.784286 -0.170467 
0.529099 -0.489289 -0.697649 
0.789131 -0.154916 -0.579646 
0.569400 -0.776495 -0.344774 
0.976207 -0.140924 -0.109442 
0.781168 -0.642106 -0.147545 
0.168722 -0.967350 -0.273587 
0.935989 -0.326787 -0.154575 
0.738467 -0.487691 -0.482196 
0.285560 -0.975086 -0.147832 
0.547384 -0.309813 -0.772468 
0.342746 -0.718812 -0.621320 
0.837698 -0.489554 -0.285354 
0.493562 -0.187895 -0.840088 
0.158070 -0.768146 -0.630804 
0.199147 -0.485242 -0.848680 
0.177854 -0.319860 -0.924584 
0.356175 -0.566427 -0.747503 
0.640968 -0.496246 -0.595644 
0.141710 -1.005187 -0.120784 
0.453967 -0.615097 -0.656309 
0.326744 -0.218975 -0.911889 
0.202035 -0.133161 -0.962903 
0.483115 0.582001 -0.635297 
0.483420 0.784340 -0.359470 
0.786502 0.362306 -0.449377 
0.385242 0.470033 -0.783564 
0.331047 0.892123 -0.304693 
0.279826 0.315692 -0.899669 
0.162990 0.167209 -0.966864 
0.744174 0.207105 -0.603448 
0.650978 0.531379 -0.503325 
0.481099 0.846038 -0.172295 
0.588225 0.170646 -0.771251 
0.166230 0.890709 -0.445395 
0.156557 0.482372 -0.862585 
0.534966 0.681662 -0.469150 
0.133724 0.968686 -0.260824 
0.380431 0.138122 -0.903342 
0.114268 0.329319 -0.935852 
0.603115 0.697837 -0.334565 
0.101473 0.636327 -0.773538 
0.152028 0.766768 -0.635938 
0.285878 0.630677 -0.719218 
0.831555 0.473102 -0.168741 
0.591208 0.389025 -0.681995 
0.357727 0.771204 -0.519994 
0.737022 0.544370 -0.333203 
0.107541 1.000318 -0.115699 
0.270033 0.954807 -0.143565 
0.682953 0.681719 -0.148192 
0.928375 0.132290 -0.280656 
0.459541 0.303682 -0.819923 
0.831553 0.398080 -0.312101 
0.858044 0.158209 -0.443067 
0.917045 0.277887 -0.173644 
0.874424 0.270781 -0.335752 
0.964521 0.112360 -0.128203 
0.704992 0.376623 -0.564304 
0.448829 0.451675 0.751544 
0.433503 0.801221 0.377323 
0.810996 0.397158 0.368079 
0.325902 0.306693 0.882087 
0.285598 0.908395 0.291254 
0.884874 0.322202 0.253365 
0.945686 0.151344 0.210098 
0.533443 0.624039 0.537049 
0.101239 0.479786 0.862615 
0.741211 0.151833 0.632976 
0.437253 0.149981 0.876887 
0.408781 0.883964 0.178460 
0.841072 0.458042 0.165976 
0.259136 0.134386 0.949028 
0.235462 0.963623 0.138011 
0.916599 0.306144 0.123127 
0.605054 0.146702 0.768995 
0.506396 0.281502 0.799070 
0.305199 0.625575 0.702145 
0.750605 0.608897 0.112019 
0.645397 0.714248 0.166351 
0.572739 0.484300 0.632223 
0.179938 0.754877 0.622491 
0.737008 0.565187 0.293871 
0.607843 0.675656 0.361104 
0.373647 0.715775 0.567712 
0.530389 0.797870 0.217796 
0.092880 0.999209 0.119233 
0.111943 0.118331 0.979995 
0.450602 0.587589 0.647904 
0.140631 0.612909 0.768654 
0.684077 0.494470 0.492566 
0.628982 0.337964 0.675285 
0.153187 0.305643 0.930623 
0.148333 0.957691 0.263990 
0.767504 0.305563 0.526660 
0.827653 0.124455 0.521229 
0.200376 0.868811 0.447537 
0.869901 0.217531 0.396703 
0.247573 0.472995 0.833196 
0.528436 -0.818227 0.350259 
0.336829 -0.388766 0.870376 
0.344799 -0.902254 0.367527 
0.159406 -0.479829 0.875075 
0.514433 -0.173536 0.843549 
0.444365 -0.914790 0.195072 
0.617870 -0.571839 0.583979 
0.270219 -0.186177 0.946569 
0.245714 -0.983874 0.186018 
0.915657 -0.397229 0.167330 
0.775209 -0.424401 0.502635 
0.750248 -0.688125 0.147291 
0.866393 -0.209011 0.460526 
0.950281 -0.202167 0.237389 
0.512391 -0.340338 0.802657 
0.580655 -0.704604 0.478564 
0.626550 -0.805213 0.169707 
0.720638 -0.665804 0.310986 
[...]
POINT_DATA 1108
SCALARS u float 1
LOOKUP_TABLE default
0.022682
0.022332
0.026024
0.026115
0.007750
0.007457
0.017566
0.017625
0.021218
0.021510
0.006262
0.005928
0.025758
0.028334
0.028692
0.026655
0.023151
0.020943
0.021836
0.030234
0.033669
0.034107
0.031380
0.027071
0.022612
0.020704
0.025433
0.028124
0.028180
0.026258
0.023075
0.020962
0.022020
0.030429
0.033653
0.034226
0.031516
0.027107
0.022846
0.020932
0.010058
0.013489
0.017882
0.021883
0.025273
0.027125
0.027214
0.023559
0.020177
0.016288
0.012837
0.010082
0.007878
0.006933
0.009619
0.013342
0.017720
0.021611
0.025014
0.026890
0.027084
0.023456
0.020099
0.016601
0.012948
0.010238
0.008192
0.007133
0.021968
0.020781
0.018938
0.016841
0.014503
0.011568
0.008890
0.008255
0.010926
0.013778
0.016290
0.018883
0.020803
0.021945
0.021789
0.020780
0.018860
0.016816
0.014281
0.011114
0.008629
0.008260
0.010540
0.013583
0.016498
0.019154
0.021080
0.022256
0.022220
0.025966
0.027858
0.027014
0.024172
0.020151
0.015908
0.013885
0.016350
0.026527
0.030666
0.033104
0.032012
0.028486
0.024359
0.019159
0.014735
0.014325
0.021836
0.025562
0.027571
0.026515
0.024163
0.020310
0.016057
0.013885
0.016392
0.026525
0.030717
0.033167
0.032093
0.028693
0.024579
0.019373
0.014855
0.014287
0.019281
0.016477
0.013503
0.010925
0.008711
0.007345
0.007020
0.006917
0.006477
0.006642
0.007769
0.010760
0.013969
0.017134
0.020303
0.022382
0.022980
0.022796
0.019264
0.016540
0.013963
0.011327
0.008823
0.007203
0.007040
0.007138
0.006832
0.006409
0.007911
0.010730
0.014026
0.017255
0.020475
0.022586
0.023104
0.022860
0.017877
0.017833
0.016947
0.015897
0.014109
0.012569
0.011278
0.008607
0.006995
0.006507
0.007717
0.008920
0.009945
0.011719
0.013352
0.014554
0.015796
0.016776
0.018005
0.018012
0.017270
0.016066
0.014250
0.012528
0.010929
0.008534
0.006605
0.006059
0.007755
0.008782
0.010265
0.011663
0.013282
0.014512
0.015758
0.016695
0.018716
0.023259
0.009689
0.018918
0.025697
0.014344
0.019314
0.024093
0.011692
0.012946
0.018135
0.020582
0.020166
0.016733
0.024528
0.030755
0.030444
0.013430
0.016522
0.026243
0.020910
0.027046
0.025011
0.020764
0.018555
0.029588
0.011619
0.016872
0.021589
0.011126
0.015194
0.008682
0.007095
0.012362
0.015870
0.027406
0.015335
0.008404
0.007449
0.019236
0.021401
0.025110
0.015895
0.020835
0.012336
0.009450
0.021124
0.023215
0.022063
0.016695
0.022021
0.014567
0.021696
0.023563
0.011939
0.011777
0.023847
0.017854
0.020022
0.016897
0.028637
0.019767
0.019474
0.026315
0.023707
0.021343
0.026404
0.024265
0.015403
0.027010
0.023425
0.027291
0.025934
0.024768
0.022919
0.016545
0.020549
0.025812
0.012313
0.019302
0.026288
0.024478
0.021138
0.010527
0.019228
0.012840
0.020854
0.028207
0.009618
0.020345
0.027264
0.016127
0.015392
0.015301
0.027705
0.025620
0.020415
0.014740
0.026382
0.024172
0.018043
0.022955
0.022329
0.007940
0.018350
0.012409
0.023636
0.019444
0.009328
0.019906
0.022640
0.020675
0.017399
0.023291
0.012400
0.035376
0.017876
0.034286
0.017598
0.015057
0.035672
0.028175
0.012063
0.032982
0.023670
0.024601
0.031349
0.020352
0.021176
0.019013
0.032338
0.034904
0.031708
0.009266
0.012858
0.028646
0.030811
0.032596
0.027311
0.029924
0.018977
0.032333
0.024766
0.029098
0.026774
0.022513
0.028788
0.023189
0.022635
0.016984
0.014698
0.023090
0.029527
0.019352
0.021402
0.024465
0.015905
0.020873
0.012661
0.009680
0.020985
0.023111
0.022056
0.016818
0.022196
0.014583
0.021421
0.023630
0.012189
0.011763
0.023583
0.017977
0.020204
0.017128
0.028232
0.019765
0.019678
0.026391
0.023857
0.021376
0.025944
0.023893
0.015510
0.026690
0.022957
0.026825
0.025363
0.024498
0.022676
0.016398
0.020584
0.025778
0.011893
0.019043
0.026304
0.024343
0.020967
0.010241
0.019318
0.012443
0.020788
0.027684
0.009394
0.020458
0.027079
0.016221
0.015356
0.015347
0.027336
0.025143
0.020167
0.014825
0.026477
0.024026
0.017991
0.022890
0.022395
0.007598
0.018328
0.012286
0.023337
0.019362
0.009058
0.019766
0.022579
0.020750
0.017326
0.023570
0.012478
0.035092
0.017617
0.033942
0.017121
0.014937
0.035450
0.027878
0.011627
0.032787
0.023457
0.024395
0.031171
0.020204
0.021001
0.018803
0.032030
0.034741
0.031391
0.008843
0.012550
0.028308
0.030483
0.032317
0.027133
0.029547
0.018806
0.031974
0.024336
0.028839
0.026546
0.022285
0.028483
0.022967
0.022333
0.016937
0.014442
0.022881
0.029387
0.018642
0.023576
0.009854
0.018770
0.026062
0.014312
0.019432
0.023952
0.011877
0.012971
0.017899
0.021010
0.019948
0.016620
0.024443
0.030728
0.029971
0.013552
0.016390
0.025947
0.020623
0.027035
0.024953
0.020517
0.018512
0.029526
0.011693
0.017160
0.021544
0.011282
0.015428
0.008908
0.007230
0.012631
0.015918
0.027177
0.015596
0.008534
0.007567
0.029317
0.022943
0.014325
0.016781
0.032809
0.014368
0.030870
0.010349
0.013922
0.029342
0.006804
0.014577
0.024794
0.019934
0.012955
0.026330
0.009925
0.015325
0.033315
0.025343
0.023565
0.034544
0.013455
0.027477
0.012733
0.027050
0.016986
0.032977
0.014247
0.027231
0.018159
0.018781
0.023259
0.026971
0.022269
0.032614
0.020056
0.011905
0.021951
0.013964
0.017575
0.011188
0.019095
0.015931
0.029296
0.015368
0.030902
0.029352
0.031578
0.020774
0.034246
0.024314
0.030588
0.025458
0.014865
0.028497
0.019691
0.012198
0.027951
0.008767
0.008597
0.007751
0.021046
0.015718
0.010325
0.013861
0.025661
0.015091
0.024579
0.009077
0.015613
0.023930
0.007256
0.019040
0.012480
0.010745
0.016070
0.020242
0.013349
0.010110
0.025072
0.017705
0.017767
0.026859
0.018040
0.021563
0.008594
0.018449
0.014117
0.026785
0.018903
0.021189
0.013443
0.012195
0.016991
0.019106
0.014704
0.024238
0.013690
0.015750
0.017373
0.009837
0.015855
0.013094
0.015639
0.012921
0.022366
0.014048
0.023974
0.021983
0.025472
0.015141
0.027011
0.015943
0.021944
0.020691
0.018876
0.013117
0.020934
0.012133
0.022338
0.010742
0.007543
0.008746
0.018797
0.018652
0.013534
0.010773
0.022704
0.009350
0.023034
0.012822
0.007540
0.019337
0.015150
0.024362
0.011407
0.011460
0.027205
0.009266
0.018136
0.011038
0.020323
0.015385
0.011581
0.017052
0.026131
0.008693
0.011998
0.019749
0.009425
0.018978
0.023061
0.007577
0.016754
0.014674
0.021042
0.021584
0.017256
0.023586
0.013862
0.025623
0.008671
0.012822
0.020558
0.010147
0.022635
0.012079
0.025586
0.011447
0.025160
0.016643
0.013158
0.012100
0.020742
0.022054
0.016969
0.020104
0.006464
0.014651
0.024043
0.015861
0.014119
0.014454
0.014298
0.013556
0.009871
0.016803
0.023988
0.007015
0.012504
0.006641
0.012953
0.007557
0.014958
0.010025
0.023300
0.014519
0.026803
0.006897
0.020065
0.015081
0.030105
0.010630
0.008315
0.009921
0.012783
0.006427
0.014651
0.029300
0.012910
0.008389
0.013982
0.006715
0.013581
0.020808
0.020184
0.027901
0.014862
0.021834
0.016876
0.012627
0.013160
0.006795
0.007792
0.025155
0.018568
0.026005
0.011028
0.028653
0.007539
0.018146
0.005913
0.014507
0.009858
0.012428
0.007894
0.011759
0.009302
0.013184
0.015347
0.006769
0.017586
0.009665
0.025698
0.011874
0.023514
0.023069
0.022307
0.017318
0.011294
0.024469
0.013655
0.022988
0.012838
0.022903
0.014066
0.011805
0.017142
0.014406
0.011200
0.010846
0.017373
0.008679
0.011507
0.019566
0.025068
0.026805
0.018576
0.012767
0.019024
0.009950
0.020122
0.025948
0.014059
0.015103
0.019391
0.014358
0.008722
0.007421
0.016830
0.014208
0.017171
0.019423
0.015880
0.023663
0.009569
0.014202
0.013432
0.011111
0.012909
0.008845
0.020217
0.012804
0.022079
0.012754
0.023074
0.025229
0.026063
0.016191
0.018724
0.021893
0.016997
0.019919
0.020546
0.015427
0.008832
0.022689
0.007249
0.005988
0.009918
0.016691
0.021983
0.007032
0.012589
0.006642
0.013050
0.024842
0.007443
0.015044
0.024335
0.009851
0.023408
0.014257
0.006862
0.020220
0.014465
0.030391
0.010713
0.008341
0.009858
0.012878
0.006407
0.014842
0.019264
0.012832
0.008231
0.014090
0.006581
0.013637
0.020864
0.014544
0.020983
0.016617
0.012394
0.013198
0.006727
0.007816
0.025662
0.017828
0.025909
0.010899
0.028584
0.007388
0.018152
0.005909
0.014617
0.009930
0.012548
0.007844
0.011836
0.009197
0.013145
0.015350
0.006432
0.009405
0.017393
0.026711
0.011954
0.019438
0.029674
0.028213
0.029610
0.023239
0.013136
0.016976
0.033082
0.014533
0.031076
0.014001
0.029449
0.014557
0.025048
0.013036
0.020171
0.013088
0.026620
0.010098
0.015004
0.033557
0.025631
0.023768
0.034726
0.013537
0.027731
0.009334
0.027334
0.017190
0.033145
0.014278
0.027355
0.018369
0.011135
0.007381
0.018040
0.023458
0.027282
0.022292
0.032886
0.020291
0.012039
0.022177
0.013343
0.017243
0.011226
0.019318
0.016063
0.029582
0.015556
0.031212
0.029660
0.031746
0.021002
0.034485
0.024540
0.030851
0.025568
0.014891
0.019629
0.028738
0.008690
0.028182
0.007016
0.006258
0.012612
0.020901
0.024044
0.014159
0.009536
0.015097
0.009077
0.024517
0.019098
0.007125
0.022206
0.022299
0.017348
0.020334
0.017779
0.013758
0.026541
0.019598
0.010923
0.012827
0.016525
0.009966
0.014082
0.010581
0.021978
0.016609
0.017864
0.008185
0.015685
0.008127
0.023872
0.022554
0.020700
0.018729
0.019110
0.012532
0.014083
0.022360
0.015242
0.024985
0.022390
0.025242
0.017509
0.017383
0.014947
0.014409
0.011909
0.012783
0.012826
0.014298
0.009602
0.015557
0.014768
0.006812
0.019004
0.016841
0.018340
0.026349
0.015901
0.026921
0.020516
0.025139
0.007704
0.017262
0.023879
0.014285
0.017909
0.007122
0.009204
0.024429
0.010127
0.006515
0.018423
0.024070
0.018655
0.018920
0.022561
0.023573
0.017420
0.021272
0.014029
0.011967
0.032297
0.026889
0.026006
0.024005
0.023913
0.025633
0.023707
0.024535
0.024791
0.021102
0.009085
0.013519
0.019174
0.030839
0.036065
0.021337
0.025468
0.031097
0.025246
0.023866
0.019764
0.015323
0.014717
0.028859
0.021403
0.015476
0.023418
0.023695
0.009560
0.024847
0.024362
0.017961
0.022382
0.007110
0.009982
0.017875
0.013855
0.029918
0.025796
0.022454
0.025616
0.010758
0.010267
0.008014
0.018187
0.028210
0.008480
0.013056
0.023145
0.026002
0.025158
0.023397
0.008768
0.014889
0.021048
0.011392
0.009431
0.021007
0.021911
0.013040
0.016968
0.021189
0.024183
0.022395
0.026542
0.027718
0.034432
0.029880
0.031621
0.019223
0.027108
0.033052
0.023027
0.014970
0.018383
0.012660
0.008454
0.009688
0.027781
0.013495
0.023213
0.009160
