# vtk DataFile Version 2.0
Unstructured Grid Example
ASCII
DATASET UNSTRUCTURED_GRID
POINTS 1108 float
1.002793 0.001069 -0.026364 
-1.002794 -0.001037 0.026116 
0.001369 1.015296 -0.004027 
-0.001183 -1.015641 0.004185 
-0.025944 -0.004055 0.981727 
0.025833 0.004203 -0.981875 
1.202667 0.000743 -0.017471 
-1.202624 -0.000474 0.017485 
0.000970 1.214815 -0.002732 
-0.000892 -1.214599 0.002964 
-0.017329 -0.002736 1.182803 
0.017419 0.002838 -1.182710 
0.983934 0.198242 -0.026515 
0.927611 0.388368 -0.025814 
0.835961 0.563946 -0.023923 
0.712048 0.717873 -0.021501 
0.560335 0.844510 -0.017461 
0.386496 0.938604 -0.013502 
0.197672 0.996324 -0.009020 
-0.195003 0.994918 0.000683 
-0.384005 0.936553 0.005873 
-0.557452 0.842149 0.011174 
-0.709576 0.715306 0.015784 
-0.834500 0.561313 0.019231 
-0.926309 0.385894 0.022735 
-0.983372 0.196200 0.024804 
-0.983949 -0.198029 0.026295 
-0.927268 -0.388163 0.025599 
-0.835292 -0.563646 0.023749 
-0.711420 -0.717694 0.021314 
-0.560006 -0.844521 0.017689 
-0.386336 -0.938632 0.013864 
-0.197654 -0.996227 0.008958 
0.195375 -0.995344 -0.000698 
0.384070 -0.937085 -0.005802 
0.557568 -0.842346 -0.011452 
0.709529 -0.715346 -0.015717 
0.834460 -0.561381 -0.019256 
0.926208 -0.385841 -0.022791 
0.983386 -0.196117 -0.024871 
-0.025578 -0.200138 0.964793 
-0.024433 -0.389169 0.911270 
-0.022050 -0.564320 0.823036 
-0.019085 -0.718331 0.702805 
-0.015520 -0.845448 0.554132 
-0.010818 -0.939470 0.383906 
-0.006026 -0.997161 0.198051 
0.003908 -0.994102 -0.189919 
0.008819 -0.933767 -0.375393 
0.013541 -0.837568 -0.545348 
0.017467 -0.709597 -0.693779 
0.020703 -0.555261 -0.815145 
0.023463 -0.380560 -0.905328 
0.025007 -0.191760 -0.961674 
0.025544 0.200070 -0.964851 
0.024158 0.389141 -0.911747 
0.022243 0.564379 -0.823100 
0.019198 0.718277 -0.702587 
0.015474 0.845322 -0.553992 
0.010998 0.939438 -0.383746 
0.006254 0.997141 -0.197966 
-0.003691 0.994114 0.189997 
-0.008919 0.933912 0.375044 
-0.013550 0.837494 0.545434 
-0.017609 0.709707 0.693901 
-0.020892 0.555334 0.814992 
-0.023543 0.380703 0.905626 
-0.025177 0.191910 0.961866 
0.973287 0.000256 0.166455 
0.906798 -0.000642 0.350085 
0.806710 -0.001246 0.519565 
0.678484 -0.001896 0.668639 
0.525739 -0.002860 0.793208 
0.353570 -0.003332 0.889476 
0.167818 -0.003675 0.953629 
-0.220706 -0.004040 0.972885 
-0.409147 -0.004427 0.926474 
-0.582732 -0.003872 0.843006 
-0.734565 -0.003614 0.724090 
-0.857266 -0.003390 0.576683 
-0.944215 -0.002363 0.405812 
-0.993439 -0.001769 0.219596 
-0.973253 -0.000202 -0.166657 
-0.907011 0.000624 -0.350323 
-0.807179 0.001170 -0.519672 
-0.678804 0.001885 -0.668775 
-0.525960 0.002641 -0.792808 
-0.353555 0.003257 -0.889422 
-0.167882 0.003747 -0.953661 
0.220486 0.004280 -0.972883 
0.409035 0.004424 -0.926386 
0.582457 0.004027 -0.842864 
0.734366 0.003691 -0.724109 
0.857290 0.003350 -0.576637 
0.944240 0.002544 -0.405956 
0.993188 0.001892 -0.219651 
1.188223 0.189774 -0.017529 
1.144941 0.374361 -0.017447 
1.073897 0.549907 -0.016606 
0.975902 0.712462 -0.015862 
0.853815 0.858046 -0.014473 
0.710683 0.982114 -0.012011 
0.549482 1.082391 -0.010203 
0.374427 1.155831 -0.007783 
0.189930 1.200193 -0.005712 
-0.188058 1.199244 0.000238 
-0.372595 1.153745 0.003359 
-0.547382 1.080307 0.005314 
-0.708762 0.979646 0.007565 
-0.851597 0.855665 0.009975 
-0.973533 0.710837 0.012798 
-1.072274 0.548163 0.014168 
-1.143599 0.372994 0.015491 
-1.187543 0.188572 0.016630 
-1.188118 -0.189785 0.017609 
-1.144606 -0.374231 0.017407 
-1.073364 -0.549733 0.016642 
-0.975380 -0.712139 0.015740 
-0.853795 -0.857813 0.014032 
-0.710661 -0.981894 0.011954 
-0.549341 -1.082414 0.010085 
-0.374343 -1.155755 0.007826 
-0.189911 -1.200268 0.005735 
0.188275 -1.199346 -0.000181 
0.372784 -1.154180 -0.003268 
0.547671 -1.080507 -0.005397 
0.708938 -0.979808 -0.007730 
0.851721 -0.855558 -0.010091 
0.973576 -0.710766 -0.013046 
1.072271 -0.548098 -0.014248 
1.143573 -0.372919 -0.015505 
1.187564 -0.188429 -0.016708 
0.002265 -1.198188 -0.184520 
0.004607 -1.151416 -0.367183 
0.007269 -1.075820 -0.539543 
0.009203 -0.973911 -0.697516 
0.011751 -0.848601 -0.838205 
0.014031 -0.702942 -0.957377 
0.015025 -0.541498 -1.052928 
0.016072 -0.367325 -1.123217 
0.016973 -0.184617 -1.166972 
0.017142 0.190380 -1.169711 
0.016685 0.373563 -1.128941 
0.015842 0.548936 -1.060236 
0.014612 0.711541 -0.965571 
0.012863 0.857107 -0.845984 
0.010388 0.981702 -0.705941 
0.008480 1.082738 -0.546706 
0.006576 1.156778 -0.373082 
0.003502 1.200863 -0.190527 
-0.002388 1.197961 0.184391 
-0.004567 1.151609 0.366982 
-0.006729 1.075446 0.540163 
-0.009157 0.973815 0.697514 
-0.011753 0.848709 0.838154 
-0.014282 0.702966 0.957713 
-0.015150 0.541553 1.053014 
-0.016204 0.367350 1.123453 
-0.017047 0.184530 1.167044 
-0.017318 -0.190231 1.169745 
-0.016687 -0.373708 1.128636 
-0.015823 -0.548761 1.060184 
-0.014668 -0.711430 0.965848 
-0.012785 -0.857066 0.846191 
-0.010327 -0.981787 0.706107 
-0.008443 -1.082850 0.546812 
-0.006526 -1.156807 0.373229 
-0.003431 -1.200929 0.190812 
-1.196732 -0.001141 0.204399 
-1.159837 -0.001258 0.388717 
-1.092723 -0.001915 0.564036 
-0.995977 -0.001894 0.725209 
-0.872793 -0.002692 0.866368 
-0.728405 -0.002698 0.985002 
-0.565056 -0.002751 1.078462 
-0.388668 -0.002665 1.142277 
-0.204318 -0.002845 1.177212 
0.168407 -0.002454 1.159446 
0.348585 -0.002427 1.108926 
0.518840 -0.002126 1.032552 
0.676714 -0.001703 0.933509 
0.820030 -0.001416 0.813700 
0.943909 -0.001169 0.673733 
1.046288 -0.000496 0.517420 
1.125742 -0.000021 0.347989 
1.178785 0.000316 0.168742 
1.196656 0.001228 -0.204671 
1.159984 0.001608 -0.388629 
1.092860 0.001946 -0.564039 
0.995801 0.002046 -0.725121 
0.872846 0.002625 -0.866244 
0.728455 0.002534 -0.984921 
0.564994 0.002710 -1.078313 
0.388426 0.002764 -1.142333 
0.204323 0.002776 -1.177066 
-0.168562 0.002407 -1.159606 
-0.348843 0.002373 -1.108923 
-0.518827 0.002233 -1.032320 
-0.676826 0.002117 -0.933984 
-0.820181 0.001400 -0.813903 
-0.944210 0.001112 -0.673971 
-1.046688 0.000424 -0.517648 
-1.125918 -0.000017 -0.348079 
-1.178780 -0.000276 -0.168797 
0.838034 -0.401915 -0.433189 
0.430947 -0.803050 -0.446903 
0.417749 -0.378668 -0.839863 
0.910170 -0.301654 -0.357605 
0.305837 -0.906149 -0.335981 
0.706311 -0.339063 -0.663797 
0.576386 -0.637989 -0.548330 
0.877327 -0.486495 -0.128319 
0.200113 -0.622559 -0.756206 
0.639448 -0.170949 -0.783420 
0.896026 -0.156798 -0.481735 
0.219607 -0.861345 -0.477570 
0.969339 -0.138866 -0.289259 
0.826616 -0.296038 -0.536264 
0.698435 -0.652624 -0.357320 
0.471778 -0.874707 -0.208802 
0.637736 -0.767671 -0.187470 
0.549083 -0.481581 -0.710621 
0.823172 -0.142230 -0.605474 
0.570973 -0.763558 -0.357382 
0.994118 -0.123076 -0.137981 
0.780856 -0.625095 -0.168697 
0.159573 -0.961052 -0.275110 
0.948433 -0.309703 -0.181344 
0.756795 -0.476319 -0.502377 
0.273297 -0.964478 -0.153904 
0.575009 -0.302054 -0.788408 
0.351467 -0.711335 -0.625817 
0.849472 -0.474767 -0.308149 
0.524209 -0.180455 -0.855012 
0.163990 -0.763545 -0.628637 
0.217056 -0.481518 -0.846762 
0.200704 -0.316674 -0.921667 
0.372022 -0.560047 -0.753254 
0.660472 -0.487069 -0.612318 
0.127033 -0.998496 -0.123344 
0.467872 -0.607312 -0.665678 
0.354351 -0.214202 -0.917665 
0.230039 -0.129845 -0.961781 
0.525224 0.597953 -0.652675 
0.520781 0.802058 -0.374621 
0.831575 0.383493 -0.477294 
0.425240 0.480874 -0.796236 
0.363182 0.904119 -0.314078 
0.316686 0.321672 -0.905196 
0.195763 0.169302 -0.964009 
0.788093 0.224568 -0.631057 
0.695201 0.552050 -0.526946 
0.513152 0.863384 -0.186594 
0.629398 0.183726 -0.793288 
0.198308 0.895247 -0.447282 
0.192577 0.484861 -0.861459 
0.576244 0.701040 -0.487969 
0.161173 0.972182 -0.262602 
0.416902 0.145826 -0.914401 
0.148457 0.330079 -0.930672 
0.642900 0.719019 -0.354754 
0.136714 0.637070 -0.770163 
0.187005 0.770021 -0.636391 
0.323952 0.638994 -0.726229 
0.869072 0.496393 -0.194834 
0.635529 0.405824 -0.704602 
0.395123 0.784118 -0.530910 
0.779852 0.567552 -0.358203 
0.130695 1.002613 -0.117586 
0.296959 0.963688 -0.150635 
0.718277 0.703924 -0.169342 
0.963740 0.151943 -0.310169 
0.500071 0.315296 -0.836754 
0.873735 0.420715 -0.339542 
0.900139 0.177233 -0.472657 
0.952020 0.299458 -0.201916 
0.915505 0.292008 -0.364855 
0.992723 0.132133 -0.157198 
0.750479 0.396198 -0.590671 
0.436652 0.455919 0.725481 
0.443456 0.810323 0.362124 
0.817068 0.412229 0.341204 
0.306024 0.309560 0.856854 
0.298795 0.914624 0.281329 
0.896357 0.339634 0.225899 
0.954855 0.169687 0.180532 
0.534519 0.632204 0.515626 
0.086186 0.478710 0.847955 
0.726542 0.164259 0.599304 
0.413590 0.156281 0.846006 
0.427217 0.895107 0.166456 
0.860803 0.477102 0.140894 
0.234245 0.137709 0.923814 
0.253409 0.969753 0.130773 
0.935655 0.325529 0.095831 
0.584172 0.156234 0.734377 
0.487915 0.287486 0.768704 
0.298338 0.627424 0.683580 
0.774943 0.628154 0.090097 
0.666799 0.731111 0.147126 
0.566831 0.492091 0.606235 
0.177043 0.755032 0.609501 
0.750625 0.580985 0.270864 
0.618679 0.688374 0.340909 
0.374069 0.720535 0.550517 
0.548534 0.811519 0.202170 
0.109772 1.000059 0.116623 
0.086081 0.119708 0.961717 
0.445571 0.592885 0.625692 
0.130997 0.612151 0.754381 
0.684996 0.506014 0.467121 
0.617279 0.346947 0.644939 
0.132511 0.306029 0.911745 
0.160904 0.960103 0.258067 
0.761921 0.318070 0.496961 
0.816659 0.139061 0.488249 
0.205832 0.871050 0.437777 
0.869454 0.233151 0.366365 
0.232941 0.473439 0.813100 
0.502318 -0.796312 0.327179 
0.303604 -0.375851 0.841155 
0.318113 -0.885195 0.350619 
0.125769 -0.471108 0.855132 
0.484153 -0.160574 0.807992 
0.422621 -0.896154 0.178362 
0.586721 -0.549458 0.550824 
0.239365 -0.178052 0.919550 
0.223423 -0.971307 0.176110 
0.907707 -0.376761 0.138074 
0.749312 -0.402525 0.467520 
0.734818 -0.666062 0.122385 
0.848196 -0.189760 0.425679 
0.945543 -0.182624 0.205923 
0.479793 -0.324215 0.767546 
0.551966 -0.681675 0.450255 
0.607398 -0.783276 0.147596 
0.697829 -0.642769 0.282825 
[...]
POINT_DATA 1108
SCALARS u float 1
LOOKUP_TABLE default
0.026534
0.026286
0.015876
0.016235
0.031991
0.031836
0.017689
0.017687
0.015096
0.014923
0.024566
0.024707
0.026887
0.026695
0.025742
0.024548
0.022308
0.020338
0.018151
0.014150
0.014030
0.015571
0.017957
0.020298
0.023089
0.024963
0.026647
0.026397
0.025374
0.024186
0.022426
0.020572
0.018035
0.014579
0.014490
0.015920
0.017911
0.020334
0.023126
0.025028
0.030586
0.028249
0.025177
0.022554
0.020937
0.019015
0.017699
0.014810
0.015123
0.018029
0.022111
0.026367
0.029986
0.031649
0.030516
0.027794
0.025346
0.022667
0.020828
0.019083
0.017745
0.014739
0.015446
0.017962
0.022163
0.026609
0.029856
0.031653
0.029602
0.036808
0.043715
0.047986
0.048601
0.045192
0.038662
0.027109
0.026956
0.029763
0.032487
0.033507
0.030888
0.027636
0.029415
0.036498
0.043360
0.047685
0.048769
0.045237
0.038601
0.026939
0.026837
0.029478
0.032338
0.033493
0.031027
0.027579
0.017901
0.018177
0.017999
0.018114
0.018111
0.017330
0.017318
0.016901
0.016172
0.014024
0.013043
0.012576
0.012117
0.012643
0.014190
0.014884
0.015815
0.016812
0.017964
0.018050
0.017851
0.017741
0.017630
0.017141
0.017229
0.016838
0.016246
0.014132
0.013463
0.012849
0.012388
0.012706
0.014395
0.014945
0.015815
0.016885
0.013542
0.011723
0.011139
0.012470
0.015642
0.019579
0.022397
0.024420
0.025118
0.023273
0.020925
0.018673
0.016718
0.015669
0.015055
0.016083
0.016998
0.016268
0.013378
0.011939
0.010276
0.012414
0.015677
0.019530
0.022410
0.024331
0.025126
0.023364
0.021128
0.018644
0.016641
0.015550
0.015083
0.016171
0.017025
0.016368
0.020294
0.025821
0.030449
0.032112
0.030237
0.027208
0.022449
0.018074
0.018649
0.032306
0.039323
0.044961
0.047060
0.045024
0.041530
0.035702
0.027610
0.020045
0.020481
0.025885
0.030558
0.031928
0.030201
0.027193
0.022327
0.017853
0.018706
0.032082
0.039177
0.045163
0.046632
0.044771
0.041152
0.035270
0.027438
0.019995
0.027048
0.017111
0.023676
0.027127
0.015006
0.028257
0.021747
0.021810
0.020956
0.029121
0.030740
0.015953
0.027848
0.029531
0.021962
0.016029
0.018371
0.023736
0.032046
0.018952
0.025780
0.020458
0.014500
0.024566
0.026473
0.014220
0.026725
0.018468
0.024368
0.026792
0.018420
0.023304
0.025562
0.020817
0.025564
0.014572
0.020818
0.025005
0.026353
0.030876
0.027917
0.033602
0.028820
0.024609
0.026954
0.027229
0.034303
0.032610
0.024719
0.031874
0.023084
0.025554
0.030808
0.020809
0.027815
0.026874
0.029388
0.024258
0.023972
0.026962
0.028401
0.033144
0.027645
0.031347
0.018641
0.021158
0.026792
0.030032
0.030208
0.031208
0.033433
0.028424
0.031674
0.027374
0.034007
0.041560
0.023404
0.034242
0.042229
0.018161
0.031061
0.030723
0.032875
0.031554
0.045837
0.046635
0.019587
0.027635
0.041566
0.017378
0.027973
0.048918
0.046345
0.032561
0.025072
0.023935
0.039611
0.025067
0.028716
0.027850
0.028682
0.021894
0.015571
0.035983
0.035701
0.029079
0.036195
0.044507
0.036437
0.015992
0.041238
0.042636
0.019520
0.037041
0.036522
0.019278
0.037066
0.016931
0.029826
0.045943
0.015290
0.032878
0.039459
0.015165
0.025369
0.035931
0.019918
0.038394
0.030051
0.041879
0.025150
0.017663
0.023902
0.034904
0.033430
0.020856
0.017688
0.021615
0.022646
0.028159
0.044409
0.018526
0.034411
0.030017
0.027715
0.040487
0.025707
0.025219
0.030715
0.046462
0.042800
0.031601
0.015597
0.031088
0.028101
0.033212
0.029201
0.024900
0.026918
0.027102
0.034122
0.032800
0.024984
0.032291
0.023094
0.025715
0.030337
0.020611
0.027930
0.026866
0.029365
0.024126
0.023945
0.026998
0.027863
0.033304
0.027704
0.031147
0.018632
0.021286
0.026563
0.029780
0.030202
0.031266
0.033287
0.028046
0.031458
0.027284
0.034223
0.040792
0.023142
0.033631
0.042276
0.018326
0.030833
0.030558
0.032966
0.031421
0.045792
0.046581
0.019689
0.027383
0.041403
0.017286
0.027731
0.048401
0.046243
0.032098
0.024689
0.024024
0.039434
0.024427
0.028573
0.027805
0.028571
0.021998
0.015740
0.036010
0.034916
0.029023
0.035968
0.044110
0.036554
0.016277
0.040857
0.042192
0.019642
0.036990
0.036505
0.019125
0.036979
0.016874
0.029872
0.046210
0.015102
0.032771
0.039453
0.014960
0.025327
0.035698
0.019871
0.038195
0.029869
0.041687
0.025223
0.017357
0.023756
0.034683
0.033228
0.020734
0.017729
0.021648
0.022672
0.028098
0.044273
0.018553
0.034330
0.029786
0.027374
0.040299
0.025461
0.025164
0.030531
0.046362
0.042893
0.031310
0.015399
0.027058
0.017106
0.023850
0.027250
0.015080
0.028266
0.021725
0.021849
0.020990
0.029262
0.030797
0.015459
0.027676
0.029519
0.021887
0.015797
0.017874
0.023781
0.032082
0.018819
0.025671
0.020373
0.014505
0.024616
0.026460
0.014001
0.026867
0.018711
0.024326
0.026983
0.018531
0.023439
0.025666
0.021013
0.025541
0.014393
0.021014
0.025108
0.026420
0.019674
0.029931
0.031569
0.022461
0.011638
0.022191
0.012416
0.033503
0.017852
0.013924
0.030243
0.040772
0.016500
0.022028
0.037508
0.013371
0.044623
0.020884
0.013387
0.020157
0.015460
0.011135
0.029141
0.014457
0.026324
0.025466
0.017557
0.012354
0.021949
0.014799
0.033350
0.035985
0.024274
0.023602
0.030942
0.013187
0.027761
0.043086
0.014336
0.041010
0.026740
0.045428
0.016625
0.035248
0.013583
0.029266
0.012087
0.014876
0.011490
0.019445
0.011265
0.027211
0.018858
0.014986
0.018087
0.017796
0.034459
0.038843
0.012657
0.041009
0.025186
0.036746
0.029086
0.029394
0.021608
0.022424
0.026893
0.020738
0.024859
0.018487
0.018330
0.020056
0.018493
0.032681
0.021807
0.020114
0.019701
0.032707
0.026326
0.017375
0.027966
0.026170
0.021544
0.022269
0.019600
0.028591
0.017923
0.030464
0.020356
0.021717
0.018340
0.022878
0.026120
0.024903
0.030456
0.031976
0.028426
0.030782
0.025785
0.017675
0.032179
0.021103
0.029216
0.017631
0.030569
0.023644
0.033013
0.023200
0.030486
0.024962
0.021746
0.023791
0.026199
0.028453
0.031755
0.019057
0.016477
0.026427
0.033174
0.023906
0.020999
0.020802
0.018521
0.017672
0.039538
0.025537
0.013546
0.039494
0.027986
0.036266
0.023784
0.012537
0.035318
0.022672
0.013738
0.018165
0.024868
0.018394
0.018052
0.027263
0.014912
0.013602
0.037702
0.044278
0.046479
0.039159
0.019018
0.030073
0.012155
0.033047
0.041785
0.030388
0.019016
0.030585
0.018147
0.024138
0.021424
0.027548
0.030313
0.029858
0.039372
0.016407
0.021315
0.015898
0.016142
0.017261
0.015710
0.032145
0.022205
0.035219
0.023501
0.043333
0.046392
0.043430
0.034253
0.032331
0.037411
0.018629
0.029581
0.032208
0.025522
0.013806
0.044170
0.014555
0.011401
0.014677
0.024917
0.018830
0.014136
0.017085
0.024462
0.016783
0.021932
0.017885
0.021566
0.013809
0.018558
0.013331
0.016736
0.015922
0.017698
0.011172
0.014611
0.028055
0.022620
0.023812
0.030075
0.018381
0.017837
0.014063
0.021763
0.018262
0.026637
0.020199
0.018230
0.015931
0.012161
0.013398
0.016005
0.018833
0.021839
0.018553
0.025037
0.017975
0.014779
0.015004
0.013239
0.015726
0.012247
0.014851
0.014958
0.021096
0.015658
0.021999
0.027339
0.030174
0.020113
0.027533
0.020356
0.024723
0.018185
0.020907
0.021882
0.016693
0.013401
0.028001
0.013222
0.013594
0.022438
0.035075
0.038688
0.024534
0.012480
0.023702
0.012843
0.018849
0.014808
0.021857
0.043221
0.045233
0.027906
0.014553
0.038352
0.026623
0.046356
0.016521
0.021742
0.018045
0.014796
0.011758
0.029983
0.043032
0.029553
0.019239
0.014037
0.013093
0.022571
0.038214
0.032222
0.037313
0.041303
0.030585
0.028950
0.035509
0.016792
0.029914
0.016581
0.043835
0.043284
0.032824
0.046490
0.021208
0.037281
0.017920
0.031074
0.012805
0.016448
0.016280
0.021969
0.013802
0.023506
0.029981
0.014666
0.018582
0.037365
0.023270
0.037714
0.015607
0.032670
0.029241
0.024866
0.018732
0.014049
0.016925
0.024422
0.016714
0.021942
0.013741
0.017837
0.021665
0.013885
0.013599
0.018579
0.012882
0.015925
0.017826
0.011086
0.014728
0.028044
0.022460
0.023624
0.030038
0.018349
0.017836
0.012223
0.021744
0.018100
0.026712
0.020190
0.018246
0.016441
0.015544
0.019214
0.021925
0.018316
0.025028
0.017755
0.014834
0.015357
0.012972
0.017499
0.012125
0.015092
0.014761
0.021109
0.015517
0.022078
0.027232
0.030070
0.019893
0.027501
0.020221
0.024738
0.018255
0.020897
0.016385
0.021995
0.015392
0.027893
0.012218
0.013869
0.013663
0.019635
0.029929
0.034108
0.022599
0.011706
0.022304
0.012566
0.017919
0.014129
0.041001
0.016514
0.042446
0.021976
0.037730
0.013362
0.044245
0.020858
0.013504
0.020305
0.015523
0.011272
0.029399
0.014480
0.040469
0.025434
0.017587
0.012513
0.022052
0.014929
0.032925
0.026859
0.036229
0.037181
0.024519
0.023606
0.031249
0.013152
0.028018
0.043291
0.014290
0.039337
0.026756
0.045482
0.016529
0.035492
0.013553
0.029546
0.012050
0.015031
0.011667
0.019513
0.011356
0.027410
0.018770
0.015124
0.018185
0.034933
0.017843
0.034539
0.012755
0.030015
0.028020
0.026275
0.030994
0.029777
0.022492
0.019313
0.020723
0.018053
0.025719
0.018245
0.019120
0.021183
0.025882
0.032101
0.032801
0.021892
0.026829
0.020945
0.032364
0.022259
0.024109
0.019423
0.017625
0.020364
0.019906
0.029672
0.030315
0.019686
0.017697
0.018434
0.017861
0.031262
0.029945
0.033091
0.031746
0.029705
0.024754
0.025917
0.020799
0.030088
0.026428
0.032356
0.021011
0.032774
0.025594
0.028223
0.023920
0.022608
0.021407
0.017876
0.022420
0.019111
0.028420
0.028884
0.020231
0.016557
0.030415
0.027837
0.026296
0.017582
0.021425
0.026256
0.019903
0.023156
0.023731
0.036989
0.026085
0.028484
0.032569
0.031859
0.011810
0.006130
0.023641
0.022090
0.026813
0.023759
0.039003
0.022636
0.024374
0.026188
0.039682
0.030203
0.005470
0.015295
0.018946
0.018213
0.022921
0.036807
0.031278
0.035040
0.030437
0.032581
0.026596
0.039444
0.037983
0.034278
0.032715
0.021246
0.040246
0.039491
0.015297
0.031203
0.013899
0.030227
0.045308
0.025016
0.032158
0.026393
0.043293
0.018330
0.018500
0.039103
0.019928
0.023404
0.036206
0.043618
0.030219
0.029360
0.026751
0.029019
0.021193
0.029564
0.034630
0.029582
0.029849
0.025797
0.027780
0.028551
0.029851
0.037639
0.044572
0.022996
0.031332
0.037070
0.037714
0.037787
0.042093
0.025524
0.030663
0.034705
0.041824
0.037536
0.035798
0.032925
0.038232
0.036089
0.044329
0.039561
0.032001
0.016729
0.018414
0.014523
0.023796
0.017040
0.016562
0.028840
0.032518
0.027479
0.028374
0.030335
0.031204
0.014918
0.011436
0.029596
0.008915
