# vtk DataFile Version 2.0
Unstructured Grid Example
ASCII
DATASET UNSTRUCTURED_GRID
POINTS 1108 float
1.011969 0.015513 -0.002546 
-1.011782 -0.015294 0.002394 
0.015449 0.983958 0.004227 
-0.015441 -0.983850 -0.004269 
-0.002530 0.004115 1.004715 
0.002584 -0.004279 -1.004148 
1.211236 0.010249 -0.001689 
-1.211225 -0.010353 0.001586 
0.010233 1.184837 0.002637 
-0.010448 -1.184697 -0.002784 
-0.001635 0.002742 1.204423 
0.001610 -0.002656 -1.204125 
0.997934 0.209475 -0.001572 
0.944629 0.396028 -0.000762 
0.853674 0.567043 0.000039 
0.728665 0.715656 0.001121 
0.575305 0.835049 0.002095 
0.400482 0.921126 0.002905 
0.211225 0.971369 0.003579 
-0.179881 0.959777 0.004578 
-0.367511 0.899253 0.004847 
-0.541747 0.805619 0.004832 
-0.695870 0.682625 0.004644 
-0.824264 0.533545 0.004361 
-0.922656 0.363409 0.003868 
-0.986176 0.178181 0.003206 
-0.997677 -0.209348 0.001485 
-0.944462 -0.395944 0.000832 
-0.853244 -0.566902 -0.000132 
-0.728273 -0.715696 -0.001186 
-0.575200 -0.835268 -0.002070 
-0.400549 -0.921422 -0.002864 
-0.211364 -0.971320 -0.003674 
0.179746 -0.959687 -0.004689 
0.367410 -0.899347 -0.004918 
0.541641 -0.805578 -0.004947 
0.695640 -0.682615 -0.004727 
0.824254 -0.533524 -0.004410 
0.922485 -0.363234 -0.003980 
0.986109 -0.177977 -0.003354 
-0.005609 -0.189026 0.983704 
-0.008310 -0.374390 0.924357 
-0.010800 -0.544531 0.829437 
-0.012755 -0.693505 0.703150 
-0.014277 -0.815463 0.550610 
-0.015195 -0.906583 0.377370 
-0.015826 -0.963783 0.190356 
-0.014636 -0.966943 -0.199006 
-0.013295 -0.913089 -0.386650 
-0.011329 -0.824100 -0.559890 
-0.008959 -0.702635 -0.712084 
-0.006435 -0.553749 -0.837162 
-0.003460 -0.383188 -0.929784 
-0.000344 -0.197704 -0.986218 
0.005420 0.189232 -0.983337 
0.008212 0.374460 -0.923869 
0.010729 0.544655 -0.829474 
0.012612 0.693660 -0.703300 
0.014109 0.815597 -0.550695 
0.015056 0.906714 -0.377458 
0.015680 0.963790 -0.190408 
0.014537 0.966921 0.198826 
0.013218 0.913009 0.386378 
0.011425 0.823728 0.559888 
0.009017 0.702457 0.712035 
0.006648 0.553671 0.837103 
0.003625 0.383008 0.930018 
0.000427 0.197444 0.986520 
0.991340 0.015897 0.193649 
0.932602 0.015859 0.382392 
0.838371 0.014967 0.556270 
0.711936 0.013785 0.708473 
0.558474 0.012124 0.833517 
0.383831 0.009594 0.926738 
0.194459 0.006748 0.984532 
-0.199351 0.000841 0.986516 
-0.389258 -0.001924 0.930486 
-0.563846 -0.005311 0.838350 
-0.716869 -0.007810 0.713819 
-0.842656 -0.010389 0.561694 
-0.936048 -0.012466 0.387675 
-0.993170 -0.014102 0.198718 
-0.991300 -0.015750 -0.193810 
-0.932657 -0.015830 -0.382554 
-0.838475 -0.014835 -0.556426 
-0.712050 -0.013714 -0.708545 
-0.558735 -0.011882 -0.833355 
-0.383747 -0.009286 -0.926401 
-0.194232 -0.006755 -0.983968 
0.199578 -0.001200 -0.986279 
0.389018 0.001957 -0.930232 
0.563811 0.005184 -0.838193 
0.717055 0.007869 -0.713863 
0.842922 0.010436 -0.561760 
0.936124 0.012701 -0.387776 
0.993170 0.014404 -0.198961 
1.201469 0.198175 -0.001237 
1.160896 0.382039 -0.000683 
1.090306 0.556776 -0.000145 
0.991212 0.717080 0.000369 
0.867024 0.858570 0.000637 
0.721471 0.977625 0.001298 
0.558367 1.071393 0.001692 
0.382197 1.137714 0.002056 
0.197952 1.175634 0.002480 
-0.176638 1.165156 0.002880 
-0.358519 1.117779 0.003246 
-0.530843 1.044175 0.003227 
-0.691195 0.947036 0.003422 
-0.835929 0.827374 0.003077 
-0.960802 0.686858 0.002860 
-1.063278 0.529430 0.002734 
-1.140904 0.358224 0.002438 
-1.190930 0.176830 0.002132 
-1.201176 -0.198015 0.001201 
-1.160679 -0.381718 0.000521 
-1.090072 -0.556684 0.000076 
-0.990913 -0.716726 -0.000391 
-0.867191 -0.858235 -0.000684 
-0.721634 -0.977577 -0.001394 
-0.558465 -1.071580 -0.001718 
-0.382233 -1.137876 -0.002134 
-0.197960 -1.175565 -0.002393 
0.176611 -1.165181 -0.002935 
0.358370 -1.117805 -0.003234 
0.530788 -1.044153 -0.003309 
0.691123 -0.947000 -0.003451 
0.835809 -0.827242 -0.003138 
0.960639 -0.686733 -0.002906 
1.063162 -0.529281 -0.002783 
1.140745 -0.358132 -0.002483 
1.190865 -0.176843 -0.002182 
-0.009922 -1.171799 -0.189553 
-0.009254 -1.130409 -0.372391 
-0.008391 -1.061171 -0.546619 
-0.007526 -0.965534 -0.707787 
-0.006021 -0.845586 -0.852088 
-0.004416 -0.704238 -0.975316 
-0.003052 -0.545186 -1.074492 
-0.001534 -0.372068 -1.146959 
-0.000156 -0.189384 -1.190615 
0.003450 0.183742 -1.187622 
0.004788 0.366054 -1.141658 
0.006117 0.537918 -1.067410 
0.007299 0.696394 -0.966983 
0.008230 0.837093 -0.843600 
0.009496 0.957109 -0.699459 
0.009811 1.053393 -0.538976 
0.010166 1.124706 -0.366020 
0.010398 1.168755 -0.183865 
0.009933 1.171836 0.189628 
0.009271 1.130337 0.372284 
0.008356 1.060611 0.546837 
0.007699 0.965136 0.707747 
0.006133 0.845397 0.851942 
0.004151 0.704210 0.975387 
0.003087 0.545177 1.074492 
0.001608 0.372103 1.147135 
0.000165 0.189525 1.190895 
-0.003311 -0.184261 1.188096 
-0.004782 -0.365906 1.141951 
-0.006243 -0.538062 1.067435 
-0.007355 -0.696367 0.966997 
-0.008215 -0.837002 0.843471 
-0.009571 -0.957001 0.699382 
-0.009881 -1.053245 0.538903 
-0.010242 -1.124624 0.366012 
-0.010454 -1.168732 0.183826 
-1.197057 -0.009647 0.190799 
-1.153181 -0.009006 0.375096 
-1.080502 -0.007840 0.550165 
-0.981223 -0.006919 0.711314 
-0.857518 -0.005184 0.855112 
-0.712669 -0.003672 0.978081 
-0.551155 -0.002252 1.076343 
-0.375104 -0.000601 1.147391 
-0.190609 0.000972 1.190503 
0.187247 0.004345 1.188835 
0.371309 0.005956 1.144346 
0.546356 0.007166 1.071772 
0.707950 0.007946 0.973080 
0.852471 0.009218 0.850450 
0.976269 0.010149 0.706951 
1.076543 0.010292 0.545785 
1.150052 0.010577 0.371362 
1.195294 0.010579 0.187212 
1.197206 0.009632 -0.190834 
1.153369 0.008971 -0.375210 
1.080844 0.007819 -0.550245 
0.981443 0.006796 -0.711412 
0.857559 0.005197 -0.855274 
0.712545 0.003824 -0.978073 
0.551063 0.002140 -1.076041 
0.375360 0.000501 -1.147133 
0.190361 -0.000616 -1.190301 
-0.187273 -0.004199 -1.188391 
-0.371270 -0.006258 -1.143773 
-0.546216 -0.007120 -1.071616 
-0.707663 -0.008316 -0.973146 
-0.852480 -0.009138 -0.850549 
-0.976341 -0.010026 -0.707034 
-1.076638 -0.010170 -0.545866 
-1.150118 -0.010475 -0.371416 
-1.195262 -0.010514 -0.187249 
0.819008 -0.380976 -0.418980 
0.407222 -0.776198 -0.446149 
0.394048 -0.371249 -0.843649 
0.896124 -0.282887 -0.341130 
0.283952 -0.876225 -0.338028 
0.684043 -0.324725 -0.654617 
0.551812 -0.615097 -0.543573 
0.865772 -0.460685 -0.112577 
0.174515 -0.613103 -0.768508 
0.618059 -0.163732 -0.777685 
0.881239 -0.143462 -0.465730 
0.195741 -0.838586 -0.483973 
0.962206 -0.123551 -0.270370 
0.807236 -0.279480 -0.522463 
0.675996 -0.624192 -0.347206 
0.451022 -0.839397 -0.205360 
0.617565 -0.733789 -0.178828 
0.525057 -0.466802 -0.708112 
0.804588 -0.131354 -0.592356 
0.547477 -0.733135 -0.351865 
0.994357 -0.107124 -0.117118 
0.764231 -0.595171 -0.155983 
0.138988 -0.932006 -0.281112 
0.940540 -0.289149 -0.163071 
0.734477 -0.454331 -0.490940 
0.254421 -0.930095 -0.156253 
0.552210 -0.292740 -0.785033 
0.326640 -0.692878 -0.629356 
0.831499 -0.450591 -0.294028 
0.502703 -0.175816 -0.854369 
0.138838 -0.749033 -0.639352 
0.191840 -0.476611 -0.860342 
0.176450 -0.316416 -0.937329 
0.347504 -0.547545 -0.757666 
0.636453 -0.468327 -0.604690 
0.109691 -0.966036 -0.129249 
0.443525 -0.589890 -0.665193 
0.331795 -0.213023 -0.925539 
0.207727 -0.132498 -0.975609 
0.518486 0.584209 -0.641576 
0.523454 0.785105 -0.359761 
0.827731 0.381920 -0.460458 
0.414112 0.467776 -0.790343 
0.368200 0.881048 -0.300601 
0.300964 0.311055 -0.907698 
0.176611 0.160524 -0.975942 
0.776829 0.224633 -0.617186 
0.691735 0.543651 -0.511984 
0.522241 0.848163 -0.169644 
0.613982 0.181296 -0.785355 
0.199289 0.867062 -0.438638 
0.180008 0.468609 -0.864444 
0.575042 0.686376 -0.473587 
0.167997 0.942184 -0.252656 
0.398651 0.140597 -0.916029 
0.132013 0.317115 -0.940514 
0.646399 0.708197 -0.337759 
0.127700 0.615926 -0.770083 
0.182437 0.745441 -0.631046 
0.315632 0.620073 -0.720541 
0.878900 0.497740 -0.173484 
0.625166 0.398106 -0.693503 
0.393237 0.763061 -0.519342 
0.782136 0.562870 -0.340047 
0.141602 0.973171 -0.107299 
0.306544 0.939901 -0.137269 
0.729481 0.698314 -0.148938 
0.963140 0.159891 -0.290194 
0.485733 0.307251 -0.831406 
0.875710 0.421109 -0.320697 
0.892956 0.181599 -0.455520 
0.959239 0.305857 -0.180342 
0.914955 0.295470 -0.345864 
0.998893 0.142664 -0.135125 
0.743296 0.391718 -0.576300 
0.471962 0.467164 0.765081 
0.469760 0.808583 0.387785 
0.849797 0.424891 0.375687 
0.338888 0.320347 0.895343 
0.320122 0.902920 0.300335 
0.924147 0.351567 0.257208 
0.978123 0.183679 0.210158 
0.567449 0.639943 0.549499 
0.115123 0.481955 0.876417 
0.762881 0.179645 0.640132 
0.447401 0.169322 0.886891 
0.446921 0.885021 0.186629 
0.885844 0.485758 0.169531 
0.264164 0.148087 0.959558 
0.270371 0.950604 0.145816 
0.957661 0.336408 0.123768 
0.620590 0.171173 0.777378 
0.524030 0.300898 0.810999 
0.329734 0.631993 0.715432 
0.797010 0.631657 0.115988 
0.689553 0.731787 0.172716 
0.602813 0.504062 0.645036 
0.204973 0.752124 0.633729 
0.779508 0.589118 0.301473 
0.648098 0.693688 0.371099 
0.404114 0.723184 0.580227 
0.571162 0.808515 0.226106 
0.125781 0.974798 0.127430 
0.112797 0.128119 0.991139 
0.479109 0.601349 0.661200 
0.160044 0.613216 0.781389 
0.719918 0.517993 0.503427 
0.654629 0.361167 0.686574 
0.161918 0.312970 0.943839 
0.180705 0.941308 0.272410 
0.798758 0.332621 0.535910 
0.851009 0.154915 0.526040 
0.230416 0.861424 0.457678 
0.901199 0.247501 0.401340 
0.264629 0.480348 0.847100 
0.497214 -0.761999 0.334606 
0.323152 -0.358731 0.864936 
0.312053 -0.849274 0.352160 
0.140894 -0.453098 0.869892 
0.512354 -0.145441 0.843323 
0.411058 -0.858591 0.181387 
0.597167 -0.525289 0.570423 
0.263629 -0.164716 0.948897 
0.212001 -0.933768 0.173318 
0.910629 -0.354068 0.158769 
0.763994 -0.380845 0.492844 
0.727181 -0.635454 0.135697 
0.870380 -0.171383 0.456246 
0.959099 -0.163935 0.231862 
0.502010 -0.306838 0.796688 
0.554076 -0.652534 0.462959 
0.597259 -0.748333 0.156595 
0.696623 -0.613179 0.297805 
[...]
POINT_DATA 1108
SCALARS u float 1
LOOKUP_TABLE default
0.019758
0.019453
0.022669
0.022748
0.006751
0.006495
0.015301
0.015353
0.018482
0.018737
0.005455
0.005164
0.022438
0.024681
0.024993
0.023219
0.020166
0.018243
0.019021
0.026336
0.029328
0.029710
0.027334
0.023581
0.019697
0.018035
0.022155
0.024498
0.024547
0.022873
0.020101
0.018260
0.019181
0.026506
0.029314
0.029814
0.027453
0.023612
0.019901
0.018234
0.008761
0.011750
0.015577
0.019062
0.022015
0.023629
0.023706
0.020522
0.017576
0.014188
0.011182
0.008782
0.006862
0.006039
0.008379
0.011622
0.015435
0.018825
0.021789
0.023423
0.023593
0.020433
0.017508
0.014461
0.011279
0.008918
0.007136
0.006213
0.019136
0.018102
0.016496
0.014670
0.012634
0.010077
0.007744
0.007191
0.009517
0.012002
0.014190
0.016449
0.018121
0.019116
0.018980
0.018101
0.016428
0.014649
0.012440
0.009681
0.007516
0.007195
0.009181
0.011832
0.014372
0.016685
0.018363
0.019387
0.019355
0.022619
0.024267
0.023532
0.021056
0.017553
0.013857
0.012095
0.014242
0.023107
0.026713
0.028836
0.027885
0.024813
0.021219
0.016689
0.012835
0.012478
0.019021
0.022267
0.024017
0.023097
0.021048
0.017692
0.013987
0.012095
0.014279
0.023105
0.026757
0.028891
0.027956
0.024994
0.021411
0.016875
0.012940
0.012445
0.016795
0.014353
0.011762
0.009516
0.007588
0.006398
0.006115
0.006025
0.005642
0.005786
0.006768
0.009373
0.012168
0.014926
0.017686
0.019497
0.020017
0.019857
0.016780
0.014408
0.012163
0.009867
0.007685
0.006274
0.006132
0.006218
0.005952
0.005583
0.006891
0.009347
0.012218
0.015031
0.017835
0.019674
0.020126
0.019913
0.015573
0.015534
0.014762
0.013847
0.012290
0.010949
0.009824
0.007498
0.006093
0.005669
0.006722
0.007770
0.008663
0.010208
0.011631
0.012678
0.013760
0.014613
0.015683
0.015690
0.015043
0.013995
0.012413
0.010913
0.009520
0.007433
0.005753
0.005278
0.006755
0.007650
0.008941
0.010159
0.011570
0.012641
0.013726
0.014543
0.016303
0.020261
0.008440
0.016479
0.022384
0.012495
0.016824
0.020987
0.010184
0.011277
0.015797
0.017929
0.017567
0.014576
0.021366
0.026790
0.026520
0.011699
0.014392
0.022859
0.018215
0.023560
0.021786
0.018088
0.016163
0.025773
0.010121
0.014697
0.018806
0.009692
0.013235
0.007563
0.006181
0.010768
0.013824
0.023873
0.013358
0.007321
0.006489
0.016756
0.018642
0.021873
0.013846
0.018149
0.010746
0.008232
0.018401
0.020222
0.019219
0.014543
0.019182
0.012689
0.018899
0.020525
0.010400
0.010259
0.020773
0.015552
0.017441
0.014718
0.024945
0.017219
0.016963
0.022923
0.020651
0.018592
0.023000
0.021137
0.013417
0.023528
0.020405
0.023773
0.022590
0.021575
0.019964
0.014412
0.017900
0.022484
0.010726
0.016814
0.022899
0.021323
0.018413
0.009170
0.016749
0.011185
0.018165
0.024570
0.008378
0.017722
0.023750
0.014048
0.013408
0.013329
0.024133
0.022317
0.017783
0.012839
0.022981
0.021056
0.015717
0.019996
0.019451
0.006916
0.015984
0.010810
0.020589
0.016937
0.008125
0.017340
0.019722
0.018009
0.015156
0.020289
0.010801
0.030816
0.015572
0.029866
0.015329
0.013116
0.031073
0.024543
0.010508
0.028730
0.020619
0.021429
0.027308
0.017728
0.018446
0.016562
0.028169
0.030404
0.027620
0.008071
0.011201
0.024953
0.026839
0.028394
0.023791
0.026066
0.016530
0.028165
0.021573
0.025347
0.023323
0.019611
0.025077
0.020200
0.019717
0.014794
0.012803
0.020113
0.025720
0.016858
0.018643
0.021311
0.013855
0.018182
0.011028
0.008432
0.018280
0.020132
0.019213
0.014650
0.019334
0.012703
0.018660
0.020584
0.010618
0.010246
0.020543
0.015659
0.017600
0.014920
0.024593
0.017217
0.017141
0.022989
0.020782
0.018620
0.022599
0.020813
0.013511
0.023250
0.019997
0.023367
0.022094
0.021340
0.019753
0.014284
0.017930
0.022455
0.010360
0.016588
0.022913
0.021205
0.018264
0.008921
0.016828
0.010839
0.018108
0.024115
0.008183
0.017821
0.023588
0.014129
0.013376
0.013369
0.023812
0.021902
0.017567
0.012914
0.023064
0.020929
0.015672
0.019939
0.019508
0.006619
0.015965
0.010702
0.020329
0.016866
0.007890
0.017218
0.019668
0.018075
0.015092
0.020531
0.010870
0.030568
0.015346
0.029567
0.014914
0.013012
0.030880
0.024285
0.010128
0.028560
0.020433
0.021250
0.027152
0.017599
0.018294
0.016379
0.027901
0.030262
0.027344
0.007703
0.010932
0.024658
0.026553
0.028151
0.023635
0.025738
0.016382
0.027852
0.021199
0.025121
0.023124
0.019412
0.024811
0.020006
0.019454
0.014754
0.012580
0.019931
0.025598
0.016239
0.020536
0.008584
0.016350
0.022702
0.012467
0.016927
0.020864
0.010346
0.011299
0.015592
0.018301
0.017376
0.014478
0.021292
0.026766
0.026107
0.011805
0.014277
0.022602
0.017964
0.023550
0.021736
0.017872
0.016126
0.025720
0.010185
0.014948
0.018767
0.009828
0.013439
0.007759
0.006298
0.011003
0.013866
0.023674
0.013585
0.007434
0.006592
0.025537
0.019985
0.012479
0.014618
0.028580
0.012516
0.026890
0.009015
0.012127
0.025559
0.005926
0.012698
0.021598
0.017365
0.011285
0.022936
0.008645
0.013349
0.029020
0.022075
0.020527
0.030091
0.011720
0.023935
0.011091
0.023563
0.014796
0.028726
0.012410
0.023721
0.015818
0.016360
0.020261
0.023494
0.019399
0.028409
0.017471
0.010370
0.019122
0.012164
0.015309
0.009746
0.016634
0.013877
0.025519
0.013387
0.026918
0.025568
0.027507
0.018096
0.029832
0.021180
0.026645
0.022176
0.012949
0.024824
0.017152
0.010625
0.024348
0.007637
0.007489
0.006752
0.018333
0.013692
0.008994
0.012074
0.022353
0.013146
0.021410
0.007906
0.013601
0.020845
0.006320
0.016586
0.010871
0.009360
0.013998
0.017632
0.011628
0.008807
0.021839
0.015423
0.015476
0.023397
0.015714
0.018783
0.007486
0.016070
0.012297
0.023332
0.016466
0.018457
0.011710
0.010623
0.014801
0.016643
0.012808
0.021113
0.011925
0.013720
0.015133
0.008569
0.013811
0.011406
0.013623
0.011255
0.019483
0.012237
0.020883
0.019149
0.022188
0.013189
0.023529
0.013888
0.019115
0.018023
0.016442
0.011426
0.018235
0.010569
0.019459
0.009358
0.006570
0.007619
0.016373
0.016248
0.011790
0.009384
0.019777
0.008144
0.020064
0.011169
0.006568
0.016844
0.013197
0.021221
0.009937
0.009983
0.023698
0.008071
0.015798
0.009615
0.017703
0.013401
0.010088
0.014854
0.022762
0.007573
0.010451
0.017203
0.008210
0.016531
0.020088
0.006600
0.014594
0.012782
0.018329
0.018801
0.015031
0.020545
0.012075
0.022320
0.007553
0.011169
0.017908
0.008839
0.019717
0.010522
0.022288
0.009972
0.021917
0.014498
0.011462
0.010540
0.018068
0.019211
0.014782
0.017512
0.005631
0.012762
0.020943
0.013816
0.012299
0.012591
0.012455
0.011809
0.008599
0.014637
0.020896
0.006111
0.010892
0.005785
0.011283
0.006583
0.013030
0.008733
0.020297
0.012648
0.023347
0.006008
0.017478
0.013137
0.026224
0.009260
0.007243
0.008642
0.011135
0.005598
0.012762
0.025523
0.011246
0.007308
0.012179
0.005849
0.011830
0.018125
0.017582
0.024304
0.012946
0.019019
0.014701
0.010999
0.011464
0.005919
0.006788
0.021912
0.016174
0.022652
0.009606
0.024959
0.006567
0.015807
0.005151
0.012637
0.008587
0.010826
0.006877
0.010243
0.008103
0.011484
0.013369
0.005897
0.015319
0.008419
0.022385
0.010343
0.020483
0.020095
0.019431
0.015086
0.009838
0.021314
0.011895
0.020024
0.011183
0.019950
0.012253
0.010283
0.014932
0.012549
0.009756
0.009448
0.015133
0.007560
0.010024
0.017044
0.021837
0.023349
0.016182
0.011121
0.016572
0.008667
0.017528
0.022603
0.012246
0.013156
0.016891
0.012507
0.007597
0.006464
0.014661
0.012376
0.014957
0.016919
0.013833
0.020613
0.008336
0.012371
0.011701
0.009678
0.011245
0.007705
0.017611
0.011153
0.019232
0.011110
0.020099
0.021977
0.022703
0.014104
0.016310
0.019071
0.014806
0.017351
0.017898
0.013438
0.007694
0.019764
0.006315
0.005216
0.008639
0.014539
0.019149
0.006126
0.010966
0.005786
0.011368
0.021639
0.006484
0.013104
0.021198
0.008581
0.020390
0.012419
0.005977
0.017614
0.012600
0.026473
0.009332
0.007266
0.008587
0.011218
0.005581
0.012929
0.016780
0.011178
0.007170
0.012274
0.005733
0.011879
0.018174
0.012669
0.018278
0.014475
0.010797
0.011496
0.005860
0.006808
0.022354
0.015529
0.022569
0.009494
0.024899
0.006436
0.015812
0.005147
0.012733
0.008650
0.010930
0.006833
0.010310
0.008011
0.011451
0.013371
0.005603
0.008192
0.015151
0.023267
0.010413
0.016932
0.025849
0.024575
0.025793
0.020243
0.011442
0.014788
0.028817
0.012659
0.027070
0.012196
0.025652
0.012681
0.021819
0.011356
0.017571
0.011401
0.023188
0.008796
0.013070
0.029231
0.022327
0.020704
0.030249
0.011792
0.024156
0.008131
0.023810
0.014974
0.028872
0.012437
0.023829
0.016001
0.009699
0.006430
0.015715
0.020434
0.023765
0.019418
0.028647
0.017675
0.010487
0.019318
0.011623
0.015020
0.009779
0.016828
0.013992
0.025768
0.013551
0.027189
0.025837
0.027653
0.018295
0.030040
0.021377
0.026874
0.022272
0.012972
0.017098
0.025033
0.007570
0.024549
0.006112
0.005451
0.010986
0.018206
0.020945
0.012334
0.008307
0.013151
0.007907
0.021357
0.016636
0.006207
0.019343
0.019424
0.015112
0.017713
0.015487
0.011985
0.023119
0.017072
0.009515
0.011173
0.014394
0.008681
0.012267
0.009217
0.019145
0.014468
0.015561
0.007130
0.013663
0.007079
0.020795
0.019646
0.018032
0.016315
0.016647
0.010916
0.012268
0.019477
0.013277
0.021764
0.019504
0.021988
0.015252
0.015142
0.013020
0.012552
0.010374
0.011135
0.011172
0.012454
0.008364
0.013552
0.012864
0.005934
0.016554
0.014670
0.015976
0.022952
0.013851
0.023450
0.017872
0.021898
0.006711
0.015036
0.020801
0.012444
0.015600
0.006204
0.008017
0.021279
0.008821
0.005675
0.016048
0.020967
0.016250
0.016481
0.019653
0.020534
0.015174
0.018529
0.012220
0.010424
0.028134
0.023423
0.022653
0.020910
0.020830
0.022329
0.020651
0.021372
0.021595
0.018381
0.007914
0.011777
0.016702
0.026864
0.031416
0.018586
0.022185
0.027088
0.021992
0.020789
0.017216
0.013347
0.012820
0.025139
0.018644
0.013481
0.020399
0.020641
0.008328
0.021644
0.021221
0.015646
0.019496
0.006194
0.008695
0.015571
0.012068
0.026061
0.022470
0.019560
0.022314
0.009371
0.008943
0.006981
0.015842
0.024573
0.007386
0.011372
0.020161
0.022650
0.021915
0.020381
0.007638
0.012970
0.018335
0.009924
0.008215
0.018299
0.019086
0.011359
0.014780
0.018457
0.021066
0.019508
0.023120
0.024145
0.029993
0.026028
0.027545
0.016745
0.023613
0.028791
0.020059
0.013040
0.016013
0.011028
0.007364
0.008439
0.024200
0.011756
0.020220
0.007979
