# vtk DataFile Version 2.0
Unstructured Grid Example
ASCII
DATASET UNSTRUCTURED_GRID
POINTS 1108 float
0.985050 -0.019376 0.003180 
-0.985284 0.019102 -0.002990 
-0.019296 1.020037 -0.005280 
0.019287 -1.020172 0.005332 
0.003160 -0.005140 0.994110 
-0.003227 0.005344 -0.994819 
1.185966 -0.012801 0.002109 
-1.185979 0.012932 -0.001981 
-0.012782 1.218940 -0.003294 
0.013050 -1.219114 0.003477 
0.002042 -0.003425 1.194476 
-0.002011 0.003318 -1.194847 
0.959366 0.177124 0.001963 
0.897963 0.366016 0.000952 
0.803735 0.541240 -0.000049 
0.680180 0.696429 -0.001400 
0.530920 0.826998 -0.002617 
0.360452 0.927319 -0.003628 
0.174937 0.992546 -0.004470 
-0.214087 1.007025 -0.005718 
-0.401634 0.954639 -0.006054 
-0.572837 0.863758 -0.006036 
-0.721142 0.737685 -0.005801 
-0.840469 0.583081 -0.005447 
-0.925407 0.406758 -0.004831 
-0.974052 0.216211 -0.004004 
-0.959686 -0.177282 -0.001855 
-0.898172 -0.366120 -0.001040 
-0.804272 -0.541417 0.000165 
-0.680670 -0.696378 0.001481 
-0.531052 -0.826725 0.002586 
-0.360369 -0.926949 0.003578 
-0.174764 -0.992608 0.004589 
0.214255 -1.007138 0.005857 
0.401760 -0.954522 0.006143 
0.572968 -0.863809 0.006179 
0.721429 -0.737698 0.005904 
0.840482 -0.583106 0.005508 
0.925621 -0.406976 0.004972 
0.974136 -0.216466 0.004190 
0.007006 -0.202665 0.977139 
0.010379 -0.393042 0.923283 
0.013490 -0.569359 0.834009 
0.015932 -0.724096 0.712049 
0.017832 -0.851463 0.561766 
0.018980 -0.945484 0.389320 
0.019767 -1.002022 0.201004 
0.018280 -0.998075 -0.190200 
0.016606 -0.937358 -0.377729 
0.014150 -0.840674 -0.550174 
0.011190 -0.712692 -0.700890 
0.008038 -0.557845 -0.824360 
0.004322 -0.382053 -0.916504 
0.000430 -0.191825 -0.973999 
-0.006770 0.202407 -0.977598 
-0.010258 0.392955 -0.923893 
-0.013401 0.569204 -0.833962 
-0.015753 0.723902 -0.711862 
-0.017623 0.851295 -0.561659 
-0.018806 0.945320 -0.389210 
-0.019585 1.002013 -0.200938 
-0.018157 0.998102 0.190424 
-0.016509 0.937458 0.378069 
-0.014270 0.841139 0.550178 
-0.011263 0.712915 0.700952 
-0.008304 0.557942 0.824434 
-0.004528 0.382278 0.916212 
-0.000534 0.192150 0.973623 
0.967602 -0.019856 0.196891 
0.912985 -0.019809 0.383048 
0.822850 -0.018694 0.554696 
0.701074 -0.017218 0.705401 
0.551943 -0.015143 0.828912 
0.381250 -0.011984 0.920309 
0.195878 -0.008428 0.976106 
-0.189768 -0.001051 0.973627 
-0.374471 0.002404 0.915628 
-0.545233 0.006634 0.822876 
-0.694914 0.009755 0.698722 
-0.817497 0.012976 0.547922 
-0.908680 0.015570 0.376448 
-0.965316 0.017615 0.190559 
-0.967652 0.019672 -0.196690 
-0.912916 0.019772 -0.382845 
-0.822720 0.018530 -0.554502 
-0.700933 0.017130 -0.705310 
-0.551617 0.014841 -0.829115 
-0.381355 0.011599 -0.920730 
-0.196162 0.008437 -0.976810 
0.189485 0.001499 -0.973923 
0.374772 -0.002444 -0.915945 
0.545277 -0.006476 -0.823072 
0.694681 -0.009829 -0.698668 
0.817165 -0.013035 -0.547838 
0.908586 -0.015865 -0.376322 
0.965316 -0.017991 -0.190256 
1.164938 0.174665 0.001545 
1.116751 0.356808 0.000853 
1.042855 0.529816 0.000182 
0.945350 0.690682 -0.000461 
0.825425 0.835986 -0.000796 
0.685197 0.962321 -0.001622 
0.527829 1.066478 -0.002114 
0.356610 1.145707 -0.002568 
0.174943 1.197207 -0.003098 
-0.201564 1.210295 -0.003598 
-0.386185 1.170606 -0.004054 
-0.562208 1.100474 -0.004031 
-0.723012 1.000528 -0.004274 
-0.864265 0.874951 -0.003843 
-0.983334 0.728430 -0.003572 
-1.076615 0.563972 -0.003414 
-1.141722 0.386553 -0.003045 
-1.178102 0.201325 -0.002664 
-1.165304 -0.174864 -0.001500 
-1.117023 -0.357209 -0.000650 
-1.043148 -0.529931 -0.000095 
-0.945723 -0.691123 0.000488 
-0.825217 -0.836404 0.000854 
-0.684994 -0.962381 0.001741 
-0.527706 -1.066244 0.002145 
-0.356566 -1.145505 0.002665 
-0.174933 -1.197293 0.002988 
0.201599 -1.210263 0.003666 
0.386372 -1.170573 0.004039 
0.562276 -1.100502 0.004134 
0.723103 -1.000573 0.004311 
0.864414 -0.875115 0.003919 
0.983537 -0.728586 0.003629 
1.076760 -0.564158 0.003477 
1.141921 -0.386669 0.003102 
1.178183 -0.201308 0.002725 
0.012394 -1.201996 -0.185434 
0.011558 -1.154831 -0.368859 
0.010481 -1.079246 -0.542502 
0.009400 -0.977423 -0.702289 
0.007520 -0.852204 -0.844082 
0.005515 -0.706721 -0.965205 
0.003812 -0.544292 -1.062608 
0.001916 -0.369262 -1.134159 
0.000195 -0.185645 -1.178495 
-0.004310 0.192691 -1.182234 
-0.005981 0.376774 -1.140780 
-0.007640 0.553370 -1.071453 
-0.009117 0.716519 -0.975613 
-0.010279 0.862811 -0.854684 
-0.011861 0.987946 -0.712691 
-0.012254 1.088961 -0.552048 
-0.012698 1.161954 -0.376816 
-0.012988 1.205799 -0.192538 
-0.012406 1.201950 0.185340 
-0.011580 1.154921 0.368992 
-0.010437 1.079946 0.542230 
-0.009616 0.977920 0.702339 
-0.007660 0.852439 0.844264 
-0.005185 0.706756 0.965117 
-0.003856 0.544304 1.062608 
-0.002008 0.369218 1.133939 
-0.000207 0.185469 1.178145 
0.004136 -0.192043 1.181641 
0.005973 -0.376959 1.140414 
0.007797 -0.553190 1.071422 
0.009187 -0.716553 0.975596 
0.010261 -0.862925 0.854845 
0.011955 -0.988081 0.712787 
0.012342 -1.089146 0.552140 
0.012793 -1.162057 0.376826 
0.013057 -1.205828 0.192587 
-1.170448 0.012049 0.183877 
-1.126388 0.011249 0.365480 
-1.055101 0.009792 0.538073 
-0.957827 0.008642 0.697884 
-0.837300 0.006476 0.840304 
-0.696191 0.004586 0.961752 
-0.536836 0.002813 1.060296 
-0.365469 0.000751 1.133619 
-0.184115 -0.001214 1.178635 
0.188314 -0.005428 1.180718 
0.370209 -0.007440 1.137423 
0.542831 -0.008950 1.066005 
0.702085 -0.009925 0.967999 
0.843603 -0.011513 0.846128 
0.964014 -0.012676 0.703332 
1.060045 -0.012855 0.543544 
1.130296 -0.013212 0.370144 
1.172651 -0.013214 0.188357 
1.170263 -0.012030 -0.183833 
1.126153 -0.011205 -0.365337 
1.054674 -0.009766 -0.537974 
0.957552 -0.008489 -0.697761 
0.837248 -0.006491 -0.840102 
0.696346 -0.004777 -0.961762 
0.536952 -0.002673 -1.060673 
0.365150 -0.000626 -1.133943 
0.184424 0.000769 -1.178887 
-0.188282 0.005245 -1.181273 
-0.370259 0.007816 -1.138139 
-0.543005 0.008893 -1.066200 
-0.702444 0.010387 -0.967915 
-0.843592 0.011414 -0.846004 
-0.963924 0.012522 -0.703230 
-1.059927 0.012703 -0.543443 
-1.130213 0.013084 -0.370076 
-1.172691 0.013133 -0.188311 
0.818618 -0.416445 -0.409695 
0.429915 -0.815069 -0.439040 
0.394349 -0.385226 -0.830808 
0.889082 -0.317978 -0.331502 
0.312244 -0.917198 -0.330598 
0.679823 -0.349963 -0.643002 
0.565449 -0.649386 -0.535208 
0.875438 -0.505989 -0.103516 
0.188686 -0.627683 -0.757961 
0.606676 -0.181173 -0.763211 
0.864386 -0.172498 -0.454105 
0.220743 -0.869266 -0.476250 
0.943678 -0.157059 -0.260633 
0.799822 -0.309501 -0.511577 
0.693242 -0.668330 -0.339230 
0.480970 -0.891055 -0.197312 
0.643742 -0.786661 -0.170074 
0.529290 -0.490347 -0.697156 
0.788404 -0.156025 -0.579048 
0.570432 -0.778534 -0.344440 
0.975353 -0.142514 -0.109081 
0.781965 -0.644314 -0.147148 
0.170121 -0.969012 -0.273233 
0.935775 -0.328557 -0.154176 
0.738655 -0.489260 -0.481784 
0.287025 -0.977203 -0.147435 
0.547157 -0.310616 -0.771877 
0.343504 -0.720032 -0.620942 
0.837989 -0.491387 -0.284945 
0.493132 -0.188463 -0.839417 
0.158975 -0.769045 -0.630402 
0.199491 -0.485648 -0.848131 
0.177920 -0.320022 -0.923985 
0.356583 -0.567315 -0.747025 
0.641180 -0.497559 -0.595218 
0.143216 -1.007028 -0.120386 
0.454458 -0.616282 -0.655891 
0.326507 -0.219255 -0.911247 
0.201768 -0.133193 -0.962305 
0.481451 0.581897 -0.635001 
0.481537 0.784304 -0.359456 
0.784562 0.361383 -0.448855 
0.383884 0.470140 -0.783245 
0.329299 0.892643 -0.304886 
0.278832 0.315910 -0.899292 
0.162349 0.167524 -0.966437 
0.742638 0.206281 -0.602802 
0.649060 0.530802 -0.502917 
0.479164 0.845938 -0.172419 
0.587013 0.170145 -0.770588 
0.164675 0.891821 -0.445713 
0.155454 0.483019 -0.862497 
0.533081 0.681440 -0.468941 
0.132112 0.969933 -0.261208 
0.379574 0.138006 -0.902745 
0.113433 0.329893 -0.935633 
0.601079 0.697350 -0.334414 
0.100239 0.637286 -0.773700 
0.150598 0.767772 -0.636168 
0.284478 0.631176 -0.719156 
0.829328 0.471943 -0.168518 
0.589611 0.388598 -0.681454 
0.356056 0.771587 -0.520024 
0.734900 0.543500 -0.332881 
0.105939 1.001595 -0.116094 
0.268316 0.955508 -0.143861 
0.680764 0.680938 -0.148157 
0.926740 0.130991 -0.280208 
0.458309 0.303515 -0.819383 
0.829475 0.396997 -0.311696 
0.856402 0.157109 -0.442482 
0.915060 0.276571 -0.173329 
0.872517 0.269620 -0.335277 
0.962904 0.110934 -0.127878 
0.703190 0.375913 -0.563739 
0.447741 0.450946 0.750907 
0.431797 0.800875 0.376831 
0.809171 0.395853 0.367721 
0.325291 0.306050 0.881463 
0.283974 0.908653 0.290827 
0.883026 0.320820 0.253184 
0.944160 0.149823 0.210095 
0.531844 0.623291 0.536463 
0.100586 0.479684 0.861965 
0.740192 0.150524 0.632640 
0.436775 0.149071 0.876416 
0.406987 0.883915 0.178076 
0.838966 0.456739 0.165809 
0.258899 0.133741 0.948533 
0.233819 0.964236 0.137644 
0.914668 0.304720 0.123096 
0.604323 0.145551 0.768600 
0.505567 0.280589 0.798509 
0.304045 0.625273 0.701520 
0.748422 0.607827 0.111832 
0.643320 0.713422 0.166051 
0.571325 0.483370 0.631621 
0.178760 0.755006 0.621963 
0.735009 0.564061 0.293514 
0.605949 0.674808 0.360634 
0.372214 0.715427 0.567123 
0.528471 0.797370 0.217405 
0.091332 1.000358 0.118847 
0.111903 0.117871 0.979471 
0.449261 0.586941 0.647278 
0.139718 0.612895 0.768055 
0.682391 0.493363 0.492055 
0.627775 0.336873 0.674754 
0.152776 0.305299 0.930001 
0.146810 0.958462 0.263594 
0.766034 0.304290 0.526225 
0.826554 0.123022 0.521003 
0.198963 0.869158 0.447059 
0.868429 0.216122 0.396485 
0.246771 0.472649 0.832542 
0.529905 -0.820872 0.350996 
0.337473 -0.390179 0.870632 
0.346339 -0.904747 0.368250 
0.160277 -0.481087 0.875319 
0.514531 -0.174858 0.843559 
0.445932 -0.917433 0.195716 
0.618843 -0.574028 0.584617 
0.270529 -0.187187 0.946460 
0.247300 -0.986231 0.186615 
0.915894 -0.399260 0.167732 
0.775736 -0.426450 0.503096 
0.751333 -0.690602 0.147836 
0.866206 -0.210781 0.460728 
0.949867 -0.203965 0.237649 
0.512879 -0.341913 0.802938 
0.581905 -0.707053 0.479298 
0.627928 -0.807888 0.170324 
0.721767 -0.668280 0.311606 
[...]
POINT_DATA 1108
SCALARS u float 1
LOOKUP_TABLE default
0.024678
0.024298
0.028314
0.028413
0.008432
0.008113
0.019112
0.019176
0.023085
0.023403
0.006813
0.006450
0.028026
0.030828
0.031218
0.029001
0.025189
0.022786
0.023758
0.032895
0.036632
0.037109
0.034142
0.029453
0.024602
0.022527
0.027672
0.030599
0.030660
0.028570
0.025106
0.022807
0.023958
0.033107
0.036615
0.037239
0.034290
0.029493
0.024857
0.022775
0.010943
0.014676
0.019456
0.023809
0.027497
0.029513
0.029609
0.025632
0.021953
0.017722
0.013966
0.010970
0.008571
0.007543
0.010466
0.014516
0.019279
0.023513
0.027215
0.029257
0.029468
0.025521
0.021868
0.018062
0.014088
0.011139
0.008913
0.007761
0.023902
0.022610
0.020604
0.018324
0.015780
0.012586
0.009672
0.008981
0.011887
0.014991
0.017724
0.020545
0.022634
0.023877
0.023707
0.022609
0.020520
0.018297
0.015538
0.012092
0.009388
0.008987
0.011468
0.014779
0.017951
0.020840
0.022936
0.024215
0.024176
0.028252
0.030310
0.029392
0.026300
0.021925
0.017308
0.015107
0.017789
0.028862
0.033365
0.036018
0.034829
0.030993
0.026503
0.020846
0.016031
0.015586
0.023758
0.027812
0.029998
0.028849
0.026289
0.022098
0.017470
0.015108
0.017835
0.028860
0.033421
0.036086
0.034918
0.031218
0.026743
0.021078
0.016162
0.015545
0.020978
0.017927
0.014691
0.011886
0.009478
0.007991
0.007638
0.007525
0.007047
0.007227
0.008453
0.011707
0.015199
0.018643
0.022090
0.024352
0.025002
0.024802
0.020959
0.017996
0.015191
0.012325
0.009599
0.007837
0.007659
0.007766
0.007434
0.006974
0.008608
0.011674
0.015260
0.018774
0.022277
0.024574
0.025138
0.024872
0.019451
0.019403
0.018439
0.017296
0.015351
0.013676
0.012271
0.009365
0.007610
0.007080
0.008397
0.009705
0.010821
0.012750
0.014527
0.015835
0.017186
0.018252
0.019589
0.019598
0.018790
0.017481
0.015504
0.013631
0.011891
0.009285
0.007186
0.006592
0.008438
0.009555
0.011168
0.012689
0.014451
0.015789
0.017145
0.018165
0.020363
0.025307
0.010542
0.020583
0.027959
0.015607
0.021014
0.026214
0.012721
0.014085
0.019731
0.022394
0.021941
0.018206
0.026687
0.033462
0.033124
0.014612
0.017976
0.028552
0.022751
0.029427
0.027212
0.022592
0.020188
0.032192
0.012642
0.018357
0.023490
0.012105
0.016531
0.009446
0.007720
0.013450
0.017266
0.029819
0.016685
0.009144
0.008105
0.020929
0.023284
0.027320
0.017294
0.022669
0.013422
0.010282
0.022984
0.025258
0.024005
0.018164
0.023960
0.015849
0.023606
0.025637
0.012990
0.012813
0.025946
0.019425
0.021785
0.018384
0.031158
0.021507
0.021188
0.028631
0.025794
0.023222
0.028728
0.026401
0.016759
0.029388
0.025486
0.029693
0.028216
0.026948
0.024936
0.018001
0.022357
0.028084
0.013397
0.021001
0.028602
0.026633
0.022999
0.011453
0.020920
0.013970
0.022689
0.030689
0.010465
0.022136
0.029664
0.017546
0.016747
0.016648
0.030143
0.027875
0.022212
0.016037
0.028704
0.026299
0.019631
0.024976
0.024295
0.008639
0.019965
0.013502
0.025717
0.021155
0.010148
0.021658
0.024633
0.022494
0.018930
0.025341
0.013491
0.038490
0.019450
0.037303
0.019146
0.016382
0.038812
0.030655
0.013125
0.035885
0.025754
0.026766
0.034109
0.022143
0.023040
0.020687
0.035185
0.037976
0.034499
0.010081
0.013990
0.031167
0.033523
0.035465
0.029715
0.032557
0.020647
0.035179
0.026946
0.031659
0.029131
0.024495
0.031322
0.025231
0.024628
0.018479
0.015992
0.025122
0.032126
0.021056
0.023285
0.026618
0.017305
0.022710
0.013775
0.010532
0.022832
0.025146
0.023997
0.018299
0.024149
0.015867
0.023307
0.025710
0.013262
0.012798
0.025659
0.019559
0.021983
0.018636
0.030717
0.021504
0.021410
0.028714
0.025957
0.023257
0.028228
0.025996
0.016875
0.029040
0.024978
0.029186
0.027596
0.026654
0.024672
0.017842
0.022396
0.028047
0.012939
0.020719
0.028619
0.026485
0.022812
0.011143
0.021018
0.013539
0.022618
0.030121
0.010221
0.022259
0.029462
0.017648
0.016707
0.016698
0.029742
0.027356
0.021942
0.016130
0.028808
0.026141
0.019574
0.024904
0.024367
0.008267
0.019941
0.013367
0.025391
0.021066
0.009855
0.021506
0.024566
0.022577
0.018851
0.025644
0.013577
0.038180
0.019168
0.036930
0.018628
0.016252
0.038570
0.030332
0.012650
0.035672
0.025522
0.026542
0.033914
0.021982
0.022850
0.020458
0.034849
0.037799
0.034154
0.009621
0.013655
0.030799
0.033166
0.035161
0.029521
0.032148
0.020461
0.034788
0.026478
0.031377
0.028883
0.024247
0.030990
0.024988
0.024298
0.018428
0.015713
0.024895
0.031973
0.020283
0.025651
0.010722
0.020422
0.028355
0.015572
0.021143
0.026060
0.012922
0.014113
0.019474
0.022859
0.021704
0.018083
0.026594
0.033432
0.032609
0.014745
0.017833
0.028231
0.022438
0.029415
0.027149
0.022323
0.020142
0.032125
0.012722
0.018671
0.023441
0.012275
0.016786
0.009692
0.007866
0.013743
0.017319
0.029570
0.016969
0.009285
0.008233
0.031897
0.024962
0.015586
0.018258
0.035697
0.015633
0.033587
0.011260
0.015147
0.031925
0.007402
0.015860
0.026976
0.021689
0.014095
0.028648
0.010798
0.016674
0.036248
0.027573
0.025639
0.037585
0.014639
0.029895
0.013854
0.029431
0.018481
0.035880
0.015501
0.029628
0.019757
0.020434
0.025307
0.029345
0.024230
0.035484
0.021821
0.012952
0.023884
0.015193
0.019122
0.012173
0.020776
0.017333
0.031875
0.016721
0.033622
0.031935
0.034357
0.022603
0.037261
0.026455
0.033280
0.027699
0.016173
0.031006
0.021424
0.013271
0.030411
0.009539
0.009354
0.008433
0.022899
0.017101
0.011233
0.015081
0.027920
0.016420
0.026742
0.009876
0.016988
0.026036
0.007894
0.020716
0.013579
0.011691
0.017484
0.022024
0.014524
0.011000
0.027278
0.019263
0.019331
0.029224
0.019628
0.023461
0.009351
0.020072
0.015360
0.029143
0.020567
0.023053
0.014626
0.013269
0.018487
0.020787
0.015998
0.026372
0.014895
0.017137
0.018902
0.010703
0.017251
0.014247
0.017015
0.014058
0.024335
0.015284
0.026084
0.023918
0.027714
0.016474
0.029389
0.017347
0.023875
0.022512
0.020537
0.014271
0.022776
0.013201
0.024305
0.011688
0.008207
0.009516
0.020451
0.020294
0.014726
0.011721
0.024702
0.010173
0.025061
0.013950
0.008204
0.021039
0.016484
0.026506
0.012411
0.012469
0.029600
0.010081
0.019733
0.012010
0.022112
0.016739
0.012600
0.018553
0.028431
0.009458
0.013054
0.021487
0.010255
0.020648
0.025091
0.008244
0.018229
0.015966
0.022894
0.023483
0.018775
0.025662
0.015082
0.027879
0.009434
0.013951
0.022367
0.011040
0.024628
0.013142
0.027838
0.012455
0.027375
0.018108
0.014316
0.013165
0.022568
0.023995
0.018463
0.021873
0.007033
0.015940
0.026159
0.017257
0.015361
0.015726
0.015557
0.014750
0.010740
0.018282
0.026100
0.007632
0.013605
0.007226
0.014093
0.008223
0.016275
0.010907
0.025351
0.015797
0.029162
0.007504
0.021831
0.016409
0.032755
0.011566
0.009047
0.010794
0.013908
0.006993
0.015940
0.031879
0.014046
0.009128
0.015213
0.007306
0.014777
0.022639
0.021960
0.030357
0.016170
0.023755
0.018362
0.013739
0.014319
0.007393
0.008478
0.027369
0.020202
0.028294
0.011998
0.031175
0.008203
0.019743
0.006434
0.015784
0.010726
0.013522
0.008589
0.012794
0.010121
0.014344
0.016698
0.007365
0.019134
0.010516
0.027960
0.012919
0.025584
0.025100
0.024271
0.018842
0.012288
0.026623
0.014857
0.025011
0.013967
0.024918
0.015304
0.012844
0.018651
0.015674
0.012186
0.011801
0.018902
0.009443
0.012520
0.021289
0.027275
0.029164
0.020211
0.013891
0.020699
0.010825
0.021893
0.028232
0.015296
0.016433
0.021098
0.015621
0.009489
0.008074
0.018312
0.015458
0.018682
0.021132
0.017278
0.025746
0.010412
0.015452
0.014615
0.012089
0.014045
0.009623
0.021997
0.013931
0.024022
0.013877
0.025105
0.027450
0.028357
0.017616
0.020372
0.023820
0.018493
0.021672
0.022355
0.016785
0.009610
0.024686
0.007887
0.006515
0.010791
0.018160
0.023918
0.007651
0.013697
0.007227
0.014199
0.027028
0.008098
0.016368
0.026477
0.010718
0.025468
0.015512
0.007466
0.022000
0.015738
0.033066
0.011656
0.009075
0.010725
0.014012
0.006971
0.016149
0.020959
0.013962
0.008956
0.015330
0.007160
0.014837
0.022701
0.015824
0.022830
0.018079
0.013485
0.014359
0.007319
0.008503
0.027921
0.019397
0.028190
0.011859
0.031100
0.008039
0.019749
0.006429
0.015903
0.010804
0.013652
0.008535
0.012878
0.010007
0.014302
0.016701
0.006998
0.010233
0.018924
0.029062
0.013006
0.021149
0.032286
0.030696
0.032217
0.025284
0.014292
0.018470
0.035994
0.015812
0.033812
0.015233
0.032041
0.015839
0.027252
0.014183
0.021947
0.014241
0.028963
0.010987
0.016324
0.036510
0.027887
0.025860
0.037783
0.014729
0.030172
0.010156
0.029740
0.018703
0.036063
0.015534
0.029763
0.019986
0.012115
0.008031
0.019628
0.025523
0.029684
0.024254
0.035781
0.022077
0.013099
0.024129
0.014517
0.018761
0.012215
0.021019
0.017477
0.032185
0.016926
0.033960
0.032271
0.034540
0.022851
0.037521
0.026700
0.033567
0.027819
0.016202
0.021357
0.031267
0.009455
0.030662
0.007634
0.006809
0.013722
0.022741
0.026161
0.015405
0.010375
0.016426
0.009876
0.026675
0.020779
0.007752
0.024160
0.024262
0.018875
0.022124
0.019344
0.014969
0.028877
0.021323
0.011885
0.013956
0.017979
0.010843
0.015322
0.011512
0.023913
0.018070
0.019436
0.008905
0.017065
0.008842
0.025973
0.024539
0.022522
0.020378
0.020793
0.013635
0.015323
0.024328
0.016584
0.027184
0.024361
0.027463
0.019050
0.018913
0.016263
0.015677
0.012957
0.013908
0.013954
0.015556
0.010447
0.016926
0.016068
0.007412
0.020676
0.018324
0.019954
0.028669
0.017300
0.029290
0.022322
0.027352
0.008382
0.018781
0.025981
0.015543
0.019485
0.007749
0.010014
0.026579
0.011018
0.007089
0.020045
0.026189
0.020297
0.020586
0.024547
0.025648
0.018953
0.023144
0.015264
0.013021
0.035140
0.029256
0.028295
0.026118
0.026017
0.027890
0.025794
0.026694
0.026973
0.022959
0.009884
0.014709
0.020861
0.033554
0.039239
0.023215
0.027710
0.033835
0.027468
0.025967
0.021504
0.016671
0.016012
0.031400
0.023287
0.016838
0.025479
0.025781
0.010402
0.027034
0.026506
0.019542
0.024352
0.007736
0.010860
0.019449
0.015074
0.032551
0.028066
0.024431
0.027871
0.011705
0.011171
0.008720
0.019787
0.030693
0.009226
0.014205
0.025182
0.028291
0.027373
0.025457
0.009540
0.016200
0.022901
0.012395
0.010261
0.022856
0.023839
0.014187
0.018461
0.023054
0.026312
0.024366
0.028878
0.030157
0.037463
0.032510
0.034404
0.020915
0.029494
0.035961
0.025054
0.016288
0.020001
0.013775
0.009198
0.010540
0.030227
0.014683
0.025256
0.009966
