# vtk DataFile Version 2.0
Unstructured Grid Example
ASCII
DATASET UNSTRUCTURED_GRID
POINTS 1108 float
0.999339 -0.000253 0.006239 
-0.999339 0.000245 -0.006180 
-0.000324 0.996380 0.000953 
0.000280 -0.996299 -0.000990 
0.006139 0.000960 1.004324 
-0.006113 -0.000995 -1.004289 
1.199369 -0.000176 0.004134 
-1.199379 0.000112 -0.004138 
-0.000230 1.196494 0.000646 
0.000211 -1.196545 -0.000701 
0.004101 0.000647 1.204070 
-0.004122 -0.000672 -1.204092 
0.980040 0.194345 0.006274 
0.922996 0.381338 0.006109 
0.830407 0.553588 0.005661 
0.705937 0.704559 0.005088 
0.554443 0.828384 0.004132 
0.381781 0.920395 0.003195 
0.194479 0.977108 0.002134 
-0.195111 0.977441 -0.000162 
-0.382371 0.920881 -0.001390 
-0.555125 0.828942 -0.002644 
-0.706523 0.705166 -0.003735 
-0.830752 0.554211 -0.004551 
-0.923305 0.381924 -0.005380 
-0.980173 0.194828 -0.005870 
-0.980037 -0.194395 -0.006222 
-0.923078 -0.381387 -0.006058 
-0.830565 -0.553659 -0.005620 
-0.706086 -0.704601 -0.005044 
-0.554521 -0.828381 -0.004186 
-0.381819 -0.920388 -0.003281 
-0.194484 -0.977131 -0.002120 
0.195023 -0.977340 0.000165 
0.382355 -0.920755 0.001373 
0.555098 -0.828896 0.002710 
0.706534 -0.705157 0.003719 
0.830762 -0.554195 0.004557 
0.923328 -0.381936 0.005393 
0.980170 -0.194847 0.005886 
0.006053 -0.193896 0.984570 
0.005782 -0.381149 0.926863 
0.005218 -0.553500 0.833465 
0.004516 -0.704451 0.708125 
0.003673 -0.828162 0.555911 
0.002560 -0.920190 0.382394 
0.001426 -0.976910 0.194390 
-0.000925 -0.977634 -0.196314 
-0.002087 -0.921540 -0.384409 
-0.003204 -0.830026 -0.557989 
-0.004133 -0.706517 -0.710261 
-0.004899 -0.555643 -0.835333 
-0.005552 -0.383186 -0.928270 
-0.005918 -0.195878 -0.985308 
-0.006045 0.193912 -0.984556 
-0.005717 0.381155 -0.926751 
-0.005264 0.553486 -0.833450 
-0.004543 0.704463 -0.708176 
-0.003662 0.828192 -0.555944 
-0.002603 0.920198 -0.382432 
-0.001480 0.976915 -0.194410 
0.000873 0.977631 0.196296 
0.002111 0.921505 0.384491 
0.003206 0.830044 0.557969 
0.004167 0.706492 0.710232 
0.004944 0.555626 0.835369 
0.005571 0.383152 0.928199 
0.005958 0.195843 0.985262 
0.982560 -0.000061 0.201867 
0.927922 0.000152 0.390398 
0.837329 0.000295 0.564091 
0.713880 0.000449 0.716210 
0.562630 0.000677 0.840524 
0.389573 0.000789 0.932021 
0.201544 0.000870 0.987212 
-0.189029 0.000956 0.982655 
-0.376421 0.001048 0.923266 
-0.549143 0.000916 0.828740 
-0.700609 0.000855 0.703088 
-0.825365 0.000802 0.550574 
-0.919067 0.000559 0.377210 
-0.977791 0.000419 0.189291 
-0.982568 0.000048 -0.201819 
-0.927871 -0.000148 -0.390341 
-0.837218 -0.000277 -0.564065 
-0.713804 -0.000446 -0.716178 
-0.562577 -0.000625 -0.840618 
-0.389576 -0.000771 -0.932034 
-0.201529 -0.000887 -0.987204 
0.189081 -0.001013 -0.982655 
0.376448 -0.001047 -0.923286 
0.549208 -0.000953 -0.828773 
0.700656 -0.000873 -0.703083 
0.825359 -0.000793 -0.550585 
0.919061 -0.000602 -0.377176 
0.977850 -0.000448 -0.189278 
1.184517 0.187236 0.004148 
1.140399 0.369982 0.004129 
1.068098 0.543577 0.003930 
0.969618 0.703657 0.003754 
0.847277 0.846276 0.003425 
0.704078 0.968148 0.002842 
0.543678 1.066088 0.002415 
0.369967 1.137822 0.001842 
0.187199 1.181684 0.001352 
-0.187642 1.181909 -0.000056 
-0.370400 1.138315 -0.000795 
-0.544175 1.066581 -0.001258 
-0.704533 0.968732 -0.001790 
-0.847802 0.846839 -0.002360 
-0.970179 0.704042 -0.003029 
-1.068482 0.543990 -0.003353 
-1.140716 0.370306 -0.003666 
-1.184678 0.187520 -0.003935 
-1.184542 -0.187233 -0.004167 
-1.140478 -0.370013 -0.004119 
-1.068224 -0.543619 -0.003938 
-0.969741 -0.703734 -0.003725 
-0.847282 -0.846331 -0.003320 
-0.704084 -0.968200 -0.002829 
-0.543711 -1.066083 -0.002387 
-0.369987 -1.137840 -0.001852 
-0.187203 -1.181667 -0.001357 
0.187590 -1.181885 0.000043 
0.370356 -1.138212 0.000773 
0.544107 -1.066534 0.001277 
0.704492 -0.968693 0.001829 
0.847772 -0.846865 0.002388 
0.970168 -0.704059 0.003087 
1.068483 -0.544005 0.003372 
1.140722 -0.370324 0.003669 
1.184673 -0.187554 0.003954 
-0.000536 -1.182159 -0.188479 
-0.001090 -1.138866 -0.371681 
-0.001720 -1.067643 -0.546030 
-0.002178 -0.970089 -0.707194 
-0.002781 -0.848511 -0.850971 
-0.003320 -0.705910 -0.974002 
-0.003556 -0.545567 -1.073060 
-0.003803 -0.371648 -1.145539 
-0.004016 -0.188456 -1.189546 
-0.004056 0.187092 -1.188897 
-0.003948 0.370171 -1.144185 
-0.003749 0.543807 -1.071331 
-0.003458 0.703875 -0.972063 
-0.003044 0.846498 -0.849130 
-0.002458 0.968245 -0.705201 
-0.002007 1.066006 -0.544335 
-0.001556 1.137598 -0.370285 
-0.000829 1.181526 -0.187058 
0.000565 1.182212 0.188509 
0.001081 1.138821 0.371729 
0.001592 1.067732 0.545883 
0.002167 0.970112 0.707195 
0.002781 0.848485 0.850983 
0.003380 0.705905 0.973922 
0.003585 0.545554 1.073040 
0.003835 0.371642 1.145484 
0.004034 0.188477 1.189529 
0.004098 -0.187128 1.188889 
0.003949 -0.370137 1.144257 
0.003744 -0.543849 1.071343 
0.003471 -0.703902 0.971997 
0.003026 -0.846508 0.849081 
0.002444 -0.968225 0.705161 
0.001998 -1.065980 0.544310 
0.001544 -1.137591 0.370250 
0.000812 -1.181510 0.186990 
-1.182503 0.000270 0.183775 
-1.136874 0.000298 0.366585 
-1.063643 0.000453 0.540234 
-0.964867 0.000448 0.700641 
-0.842786 0.000637 0.844306 
-0.699885 0.000638 0.967464 
-0.539993 0.000651 1.067018 
-0.366597 0.000631 1.141029 
-0.183794 0.000673 1.187122 
0.192292 0.000581 1.191327 
0.376082 0.000574 1.148921 
0.550929 0.000503 1.077882 
0.712117 0.000403 0.979650 
0.855272 0.000335 0.856770 
0.977189 0.000277 0.712822 
1.074632 0.000117 0.551265 
1.144942 0.000005 0.376223 
1.186750 -0.000075 0.192213 
1.182521 -0.000291 -0.183710 
1.136839 -0.000380 -0.366606 
1.063611 -0.000461 -0.540233 
0.964909 -0.000484 -0.700662 
0.842774 -0.000621 -0.844336 
0.699873 -0.000600 -0.967484 
0.540007 -0.000641 -1.067053 
0.366654 -0.000654 -1.141016 
0.183793 -0.000657 -1.187157 
-0.192255 -0.000570 -1.191289 
-0.376021 -0.000561 -1.148922 
-0.550932 -0.000528 -1.077937 
-0.712090 -0.000501 -0.979537 
-0.855236 -0.000331 -0.856722 
-0.977118 -0.000263 -0.712766 
-1.074537 -0.000100 -0.551211 
-1.144900 0.000004 -0.376202 
-1.186751 0.000065 -0.192200 
0.814291 -0.395524 -0.410512 
0.414086 -0.791217 -0.442061 
0.388605 -0.377179 -0.837484 
0.888928 -0.297741 -0.331938 
0.294330 -0.891673 -0.334427 
0.676453 -0.335209 -0.646058 
0.553496 -0.628534 -0.537848 
0.868352 -0.479488 -0.103869 
0.176250 -0.618882 -0.765620 
0.606738 -0.171614 -0.768370 
0.868473 -0.156272 -0.455550 
0.203841 -0.850070 -0.481242 
0.950330 -0.138351 -0.260547 
0.798573 -0.292069 -0.513211 
0.680169 -0.641733 -0.340427 
0.462577 -0.859445 -0.200121 
0.627185 -0.754843 -0.171969 
0.521699 -0.476251 -0.701494 
0.791291 -0.142345 -0.581935 
0.554538 -0.750899 -0.346477 
0.983964 -0.122808 -0.107761 
0.770048 -0.615112 -0.148117 
0.151235 -0.945480 -0.278200 
0.936052 -0.305954 -0.153856 
0.731493 -0.468333 -0.483199 
0.267881 -0.947861 -0.151961 
0.544037 -0.300365 -0.777001 
0.330038 -0.703441 -0.625567 
0.830815 -0.467301 -0.285693 
0.492351 -0.181672 -0.845995 
0.143958 -0.756603 -0.636966 
0.190080 -0.480419 -0.856842 
0.171519 -0.318338 -0.933698 
0.346694 -0.555457 -0.752859 
0.633368 -0.479965 -0.597677 
0.124021 -0.980895 -0.125773 
0.443775 -0.600279 -0.659964 
0.323549 -0.216170 -0.919544 
0.199170 -0.133508 -0.971566 
0.496528 0.579685 -0.635334 
0.501038 0.780653 -0.356077 
0.803085 0.370255 -0.450094 
0.394858 0.465976 -0.785046 
0.347998 0.881964 -0.299768 
0.285074 0.311212 -0.903668 
0.164237 0.162296 -0.973539 
0.755363 0.214557 -0.605995 
0.667450 0.534598 -0.503458 
0.500706 0.843338 -0.167159 
0.595505 0.174590 -0.775358 
0.180489 0.874006 -0.440483 
0.163533 0.472686 -0.864080 
0.551685 0.680192 -0.467629 
0.149880 0.950343 -0.255005 
0.383842 0.137935 -0.909110 
0.117906 0.321073 -0.940159 
0.622307 0.699672 -0.331898 
0.110467 0.622667 -0.772053 
0.163849 0.751903 -0.632597 
0.296533 0.621700 -0.718433 
0.853968 0.483874 -0.165701 
0.603163 0.391052 -0.684251 
0.372347 0.762766 -0.516980 
0.756704 0.551111 -0.331810 
0.124574 0.981833 -0.109701 
0.287792 0.942854 -0.137731 
0.705345 0.687432 -0.143680 
0.942983 0.145881 -0.279976 
0.467261 0.303293 -0.823529 
0.850755 0.407944 -0.311288 
0.871157 0.169166 -0.444295 
0.936655 0.291268 -0.171381 
0.891491 0.282075 -0.335548 
0.980565 0.127709 -0.125917 
0.719544 0.381968 -0.565993 
0.466999 0.460908 0.766658 
0.455111 0.803933 0.387834 
0.835204 0.411921 0.379467 
0.339189 0.315038 0.896819 
0.305293 0.903303 0.299605 
0.908112 0.337484 0.262404 
0.964954 0.168374 0.217134 
0.555664 0.632618 0.550346 
0.113978 0.481475 0.875206 
0.759005 0.167274 0.645674 
0.449560 0.161273 0.890806 
0.429626 0.882026 0.186700 
0.865994 0.471850 0.174261 
0.268349 0.142655 0.961954 
0.254287 0.953568 0.144883 
0.939228 0.321559 0.130010 
0.620263 0.160620 0.782727 
0.522424 0.292905 0.814140 
0.323039 0.629379 0.715320 
0.775516 0.619383 0.119830 
0.669516 0.721849 0.175107 
0.594014 0.495518 0.646841 
0.197169 0.753021 0.632992 
0.761875 0.577265 0.304340 
0.631884 0.684565 0.372489 
0.393683 0.719546 0.580053 
0.553043 0.801676 0.226986 
0.110627 0.982874 0.125268 
0.118627 0.124474 0.991685 
0.470634 0.595430 0.661948 
0.155742 0.613291 0.780448 
0.707547 0.507285 0.505765 
0.648702 0.351174 0.689928 
0.163850 0.310395 0.943825 
0.166753 0.946293 0.270957 
0.789482 0.320487 0.539801 
0.845691 0.141130 0.532213 
0.218939 0.863399 0.456549 
0.890692 0.233643 0.406947 
0.262308 0.477750 0.847141 
0.513981 -0.786251 0.345376 
0.335652 -0.371971 0.873695 
0.329471 -0.871275 0.361372 
0.155131 -0.464226 0.876369 
0.520225 -0.158035 0.851814 
0.427497 -0.882057 0.189982 
0.611558 -0.546369 0.582866 
0.273165 -0.173915 0.954502 
0.228708 -0.953732 0.179968 
0.914215 -0.373547 0.168595 
0.773925 -0.400791 0.504474 
0.738654 -0.658534 0.145522 
0.873334 -0.188698 0.465944 
0.957230 -0.181523 0.241182 
0.513244 -0.322012 0.807020 
0.569877 -0.675616 0.474949 
0.611723 -0.772811 0.166273 
0.710164 -0.636474 0.308938 
[...]
POINT_DATA 1108
SCALARS u float 1
LOOKUP_TABLE default
0.006279
0.006220
0.003757
0.003842
0.007570
0.007534
0.004186
0.004185
0.003572
0.003531
0.005813
0.005847
0.006362
0.006317
0.006092
0.005809
0.005279
0.004813
0.004295
0.003348
0.003320
0.003685
0.004249
0.004803
0.005464
0.005907
0.006306
0.006247
0.006005
0.005723
0.005307
0.004868
0.004268
0.003450
0.003429
0.003767
0.004238
0.004812
0.005473
0.005923
0.007238
0.006685
0.005958
0.005337
0.004954
0.004500
0.004188
0.003505
0.003579
0.004266
0.005232
0.006240
0.007096
0.007490
0.007221
0.006577
0.005998
0.005364
0.004929
0.004516
0.004199
0.003488
0.003655
0.004251
0.005245
0.006297
0.007065
0.007490
0.007005
0.008710
0.010345
0.011355
0.011501
0.010694
0.009149
0.006415
0.006379
0.007043
0.007688
0.007929
0.007309
0.006540
0.006961
0.008637
0.010261
0.011284
0.011541
0.010705
0.009135
0.006375
0.006351
0.006976
0.007652
0.007926
0.007342
0.006526
0.004236
0.004301
0.004259
0.004287
0.004286
0.004101
0.004098
0.004000
0.003827
0.003319
0.003087
0.002976
0.002867
0.002992
0.003358
0.003522
0.003743
0.003978
0.004251
0.004271
0.004224
0.004198
0.004172
0.004056
0.004077
0.003985
0.003845
0.003344
0.003186
0.003041
0.002932
0.003007
0.003406
0.003536
0.003743
0.003996
0.003205
0.002774
0.002636
0.002951
0.003701
0.004633
0.005300
0.005779
0.005944
0.005507
0.004952
0.004419
0.003956
0.003708
0.003563
0.003806
0.004022
0.003850
0.003166
0.002825
0.002432
0.002938
0.003710
0.004622
0.005303
0.005758
0.005946
0.005529
0.005000
0.004412
0.003938
0.003680
0.003569
0.003827
0.004029
0.003873
0.004802
0.006110
0.007205
0.007599
0.007155
0.006438
0.005312
0.004277
0.004413
0.007645
0.009305
0.010639
0.011136
0.010654
0.009828
0.008449
0.006534
0.004744
0.004847
0.006125
0.007231
0.007555
0.007147
0.006435
0.005283
0.004225
0.004427
0.007592
0.009271
0.010687
0.011035
0.010595
0.009738
0.008346
0.006493
0.004732
0.006401
0.004049
0.005603
0.006419
0.003551
0.006687
0.005146
0.005161
0.004959
0.006891
0.007274
0.003775
0.006590
0.006988
0.005197
0.003793
0.004347
0.005617
0.007583
0.004485
0.006101
0.004841
0.003431
0.005813
0.006265
0.003365
0.006324
0.004370
0.005767
0.006340
0.004359
0.005515
0.006049
0.004926
0.006050
0.003448
0.004926
0.005917
0.006236
0.007306
0.006606
0.007952
0.006820
0.005824
0.006378
0.006443
0.008118
0.007717
0.005849
0.007543
0.005463
0.006047
0.007290
0.004924
0.006582
0.006360
0.006954
0.005740
0.005673
0.006380
0.006721
0.007843
0.006542
0.007418
0.004411
0.005007
0.006340
0.007107
0.007148
0.007385
0.007912
0.006726
0.007495
0.006478
0.008047
0.009835
0.005538
0.008103
0.009993
0.004298
0.007350
0.007270
0.007779
0.007467
0.010847
0.011036
0.004635
0.006539
0.009836
0.004112
0.006620
0.011576
0.010967
0.007705
0.005933
0.005664
0.009374
0.005932
0.006795
0.006590
0.006787
0.005181
0.003685
0.008515
0.008448
0.006881
0.008565
0.010532
0.008622
0.003784
0.009759
0.010089
0.004619
0.008765
0.008643
0.004562
0.008771
0.004007
0.007058
0.010872
0.003618
0.007780
0.009338
0.003589
0.006003
0.008503
0.004713
0.009086
0.007111
0.009910
0.005952
0.004180
0.005656
0.008260
0.007911
0.004935
0.004186
0.005115
0.005359
0.006664
0.010509
0.004384
0.008143
0.007103
0.006558
0.009581
0.006083
0.005968
0.007269
0.010995
0.010128
0.007478
0.003691
0.007357
0.006650
0.007859
0.006910
0.005892
0.006370
0.006413
0.008075
0.007762
0.005912
0.007641
0.005465
0.006085
0.007179
0.004877
0.006609
0.006358
0.006949
0.005709
0.005666
0.006389
0.006593
0.007881
0.006556
0.007371
0.004409
0.005037
0.006286
0.007047
0.007147
0.007399
0.007877
0.006637
0.007444
0.006456
0.008098
0.009653
0.005476
0.007958
0.010004
0.004337
0.007296
0.007231
0.007801
0.007435
0.010836
0.011023
0.004659
0.006480
0.009798
0.004091
0.006562
0.011454
0.010943
0.007596
0.005842
0.005685
0.009332
0.005780
0.006762
0.006580
0.006761
0.005206
0.003725
0.008521
0.008263
0.006868
0.008512
0.010438
0.008650
0.003852
0.009668
0.009984
0.004648
0.008753
0.008638
0.004526
0.008751
0.003993
0.007069
0.010935
0.003574
0.007755
0.009336
0.003540
0.005993
0.008448
0.004702
0.009038
0.007068
0.009865
0.005969
0.004107
0.005622
0.008207
0.007863
0.004906
0.004196
0.005123
0.005365
0.006649
0.010477
0.004390
0.008124
0.007049
0.006478
0.009536
0.006025
0.005955
0.007225
0.010971
0.010150
0.007409
0.003644
0.006403
0.004048
0.005644
0.006448
0.003569
0.006689
0.005141
0.005170
0.004967
0.006925
0.007288
0.003658
0.006549
0.006985
0.005179
0.003738
0.004230
0.005627
0.007592
0.004453
0.006075
0.004821
0.003433
0.005825
0.006262
0.003313
0.006358
0.004428
0.005756
0.006385
0.004385
0.005547
0.006074
0.004973
0.006044
0.003406
0.004973
0.005942
0.006252
0.004656
0.007083
0.007470
0.005315
0.002754
0.005251
0.002938
0.007928
0.004225
0.003295
0.007157
0.009648
0.003905
0.005213
0.008876
0.003164
0.010560
0.004942
0.003168
0.004770
0.003658
0.002635
0.006896
0.003421
0.006229
0.006026
0.004155
0.002924
0.005194
0.003502
0.007892
0.008516
0.005744
0.005585
0.007322
0.003121
0.006569
0.010196
0.003392
0.009705
0.006328
0.010750
0.003934
0.008341
0.003214
0.006926
0.002860
0.003520
0.002719
0.004602
0.002666
0.006439
0.004463
0.003546
0.004280
0.004211
0.008154
0.009192
0.002995
0.009704
0.005960
0.008696
0.006883
0.006956
0.005113
0.005306
0.006364
0.004907
0.005883
0.004375
0.004338
0.004746
0.004376
0.007734
0.005161
0.004760
0.004662
0.007740
0.006230
0.004112
0.006618
0.006193
0.005098
0.005270
0.004638
0.006766
0.004241
0.007209
0.004817
0.005139
0.004340
0.005414
0.006181
0.005893
0.007207
0.007567
0.006727
0.007284
0.006102
0.004183
0.007615
0.004994
0.006914
0.004172
0.007234
0.005595
0.007812
0.005490
0.007214
0.005907
0.005146
0.005630
0.006200
0.006733
0.007514
0.004510
0.003899
0.006254
0.007850
0.005657
0.004969
0.004923
0.004383
0.004182
0.009356
0.006043
0.003206
0.009346
0.006623
0.008582
0.005628
0.002967
0.008358
0.005365
0.003251
0.004299
0.005885
0.004353
0.004272
0.006452
0.003529
0.003219
0.008922
0.010478
0.010999
0.009267
0.004500
0.007117
0.002876
0.007820
0.009888
0.007191
0.004500
0.007238
0.004294
0.005712
0.005070
0.006519
0.007173
0.007066
0.009317
0.003883
0.005044
0.003762
0.003820
0.004085
0.003718
0.007607
0.005255
0.008334
0.005561
0.010254
0.010978
0.010277
0.008106
0.007651
0.008853
0.004408
0.007000
0.007622
0.006039
0.003267
0.010452
0.003444
0.002698
0.003473
0.005896
0.004456
0.003345
0.004043
0.005789
0.003972
0.005190
0.004232
0.005103
0.003268
0.004392
0.003155
0.003961
0.003768
0.004188
0.002644
0.003458
0.006639
0.005353
0.005635
0.007117
0.004350
0.004221
0.003328
0.005150
0.004322
0.006303
0.004780
0.004314
0.003770
0.002878
0.003170
0.003787
0.004457
0.005168
0.004390
0.005925
0.004254
0.003497
0.003550
0.003133
0.003721
0.002898
0.003514
0.003540
0.004992
0.003705
0.005206
0.006470
0.007140
0.004759
0.006515
0.004817
0.005851
0.004303
0.004947
0.005178
0.003950
0.003171
0.006626
0.003129
0.003217
0.005310
0.008300
0.009155
0.005806
0.002953
0.005609
0.003039
0.004460
0.003504
0.005172
0.010228
0.010704
0.006604
0.003444
0.009076
0.006300
0.010970
0.003909
0.005145
0.004270
0.003501
0.002782
0.007095
0.010183
0.006993
0.004553
0.003322
0.003098
0.005341
0.009043
0.007625
0.008830
0.009774
0.007238
0.006851
0.008403
0.003974
0.007079
0.003924
0.010373
0.010243
0.007767
0.011001
0.005019
0.008822
0.004241
0.007353
0.003030
0.003892
0.003852
0.005199
0.003266
0.005562
0.007095
0.003471
0.004397
0.008842
0.005507
0.008925
0.003693
0.007731
0.006920
0.005884
0.004433
0.003325
0.004005
0.005779
0.003955
0.005192
0.003252
0.004221
0.005127
0.003286
0.003218
0.004397
0.003049
0.003768
0.004218
0.002623
0.003485
0.006636
0.005315
0.005590
0.007108
0.004342
0.004221
0.002893
0.005145
0.004283
0.006321
0.004778
0.004318
0.003891
0.003678
0.004547
0.005188
0.004334
0.005923
0.004202
0.003510
0.003634
0.003070
0.004141
0.002869
0.003571
0.003493
0.004995
0.003672
0.005225
0.006444
0.007116
0.004707
0.006508
0.004785
0.005854
0.004320
0.004945
0.003877
0.005205
0.003642
0.006601
0.002891
0.003282
0.003233
0.004646
0.007082
0.008071
0.005348
0.002770
0.005278
0.002974
0.004240
0.003344
0.009702
0.003908
0.010044
0.005201
0.008929
0.003162
0.010470
0.004936
0.003196
0.004805
0.003673
0.002667
0.006957
0.003427
0.009577
0.006019
0.004162
0.002961
0.005218
0.003533
0.007791
0.006356
0.008573
0.008798
0.005802
0.005586
0.007395
0.003112
0.006630
0.010244
0.003382
0.009309
0.006332
0.010763
0.003911
0.008399
0.003207
0.006992
0.002851
0.003557
0.002761
0.004618
0.002687
0.006486
0.004442
0.003579
0.004303
0.008267
0.004222
0.008173
0.003018
0.007103
0.006631
0.006218
0.007334
0.007047
0.005323
0.004570
0.004904
0.004272
0.006086
0.004318
0.004525
0.005013
0.006125
0.007596
0.007762
0.005181
0.006349
0.004957
0.007659
0.005267
0.005705
0.004596
0.004171
0.004819
0.004711
0.007022
0.007174
0.004659
0.004188
0.004362
0.004227
0.007398
0.007086
0.007831
0.007512
0.007029
0.005858
0.006133
0.004922
0.007120
0.006254
0.007657
0.004972
0.007756
0.006057
0.006679
0.005661
0.005350
0.005066
0.004230
0.005305
0.004522
0.006725
0.006835
0.004788
0.003918
0.007197
0.006587
0.006223
0.004161
0.005070
0.006213
0.004710
0.005480
0.005616
0.008753
0.006173
0.006740
0.007707
0.007539
0.002795
0.001451
0.005594
0.005227
0.006345
0.005622
0.009230
0.005357
0.005768
0.006197
0.009390
0.007147
0.001294
0.003619
0.004483
0.004310
0.005424
0.008710
0.007402
0.008292
0.007203
0.007710
0.006294
0.009334
0.008988
0.008112
0.007742
0.005028
0.009524
0.009345
0.003620
0.007384
0.003289
0.007153
0.010722
0.005920
0.007610
0.006246
0.010245
0.004338
0.004378
0.009253
0.004716
0.005538
0.008568
0.010322
0.007151
0.006948
0.006330
0.006867
0.005015
0.006996
0.008195
0.007000
0.007063
0.006105
0.006574
0.006756
0.007064
0.008907
0.010548
0.005442
0.007414
0.008772
0.008925
0.008942
0.009961
0.006040
0.007256
0.008213
0.009897
0.008883
0.008471
0.007791
0.009047
0.008540
0.010490
0.009362
0.007573
0.003959
0.004358
0.003437
0.005631
0.004032
0.003919
0.006825
0.007695
0.006503
0.006715
0.007178
0.007384
0.003530
0.002706
0.007004
0.002110
