# vtk DataFile Version 2.0
Unstructured Grid Example
ASCII
DATASET UNSTRUCTURED_GRID
POINTS 1108 float
0.981611 -0.023834 0.003911 
-0.981898 0.023497 -0.003678 
-0.023735 1.024647 -0.006494 
0.023724 -1.024813 0.006558 
0.003887 -0.006323 0.992755 
-0.003969 0.006574 -0.993627 
1.182737 -0.015746 0.002594 
-1.182753 0.015907 -0.002436 
-0.015722 1.223297 -0.004052 
0.016052 -1.223511 0.004277 
0.002512 -0.004213 1.193205 
-0.002473 0.004081 -1.193662 
0.954438 0.172990 0.002415 
0.892000 0.362181 0.001171 
0.797354 0.537943 -0.000060 
0.673984 0.693972 -0.001723 
0.525249 0.825970 -0.003219 
0.355337 0.928111 -0.004463 
0.170300 0.995252 -0.005499 
-0.218458 1.013062 -0.007034 
-0.405994 0.961716 -0.007446 
-0.576809 0.871186 -0.007425 
-0.724371 0.744720 -0.007135 
-0.842540 0.589410 -0.006700 
-0.925759 0.412297 -0.005943 
-0.972503 0.221070 -0.004926 
-0.954832 -0.173185 -0.002282 
-0.892257 -0.362309 -0.001279 
-0.798015 -0.538161 0.000203 
-0.674587 -0.693910 0.001822 
-0.525411 -0.825633 0.003180 
-0.355235 -0.927656 0.004401 
-0.170087 -0.995328 0.005645 
0.218665 -1.013201 0.007205 
0.406150 -0.961572 0.007556 
0.576971 -0.871249 0.007601 
0.724724 -0.744736 0.007262 
0.842556 -0.589442 0.006776 
0.926022 -0.412565 0.006115 
0.972606 -0.221384 0.005154 
0.008618 -0.204408 0.976300 
0.012768 -0.395426 0.923146 
0.016593 -0.572531 0.834593 
0.019597 -0.728005 0.713186 
0.021935 -0.856063 0.563191 
0.023346 -0.950455 0.390847 
0.024315 -1.006908 0.202364 
0.022486 -1.002052 -0.189074 
0.020426 -0.940459 -0.376589 
0.017405 -0.842792 -0.548933 
0.013765 -0.713978 -0.699460 
0.009887 -0.558368 -0.822724 
0.005317 -0.381908 -0.914808 
0.000529 -0.191074 -0.972438 
-0.008327 0.204091 -0.976864 
-0.012618 0.395319 -0.923896 
-0.016485 0.572341 -0.834535 
-0.019378 0.727766 -0.712956 
-0.021677 0.855856 -0.563060 
-0.023132 0.950253 -0.390711 
-0.024091 1.006897 -0.202284 
-0.022334 1.002087 0.189351 
-0.020308 0.940582 0.377007 
-0.017554 0.843364 0.548937 
-0.013854 0.714251 0.699535 
-0.010215 0.558488 0.822815 
-0.005569 0.382185 0.914448 
-0.000657 0.191474 0.971975 
0.964569 -0.024425 0.197305 
0.910479 -0.024367 0.383132 
0.820867 -0.022995 0.554494 
0.699686 -0.021179 0.705008 
0.551109 -0.018627 0.828323 
0.380921 -0.014741 0.919488 
0.196060 -0.010367 0.975029 
-0.188543 -0.001293 0.971981 
-0.372582 0.002957 0.913729 
-0.542854 0.008160 0.820899 
-0.692108 0.011999 0.696793 
-0.814282 0.015961 0.546162 
-0.905183 0.019152 0.375014 
-0.961757 0.021667 0.189516 
-0.964631 0.024198 -0.197058 
-0.910394 0.024321 -0.382883 
-0.820707 0.022793 -0.554256 
-0.699512 0.021071 -0.704896 
-0.550707 0.018255 -0.828573 
-0.381049 0.014267 -0.920005 
-0.196408 0.010379 -0.975896 
0.188195 0.001844 -0.972344 
0.372952 -0.003006 -0.914120 
0.542908 -0.007965 -0.821139 
0.691822 -0.012090 -0.696727 
0.813874 -0.016034 -0.546059 
0.905067 -0.019515 -0.374859 
0.961757 -0.022131 -0.189144 
1.160270 0.171661 0.001901 
1.111110 0.353584 0.001049 
1.036792 0.526371 0.000223 
0.939490 0.687309 -0.000567 
0.820110 0.833100 -0.000979 
0.680562 0.960365 -0.001995 
0.523927 1.065850 -0.002600 
0.353341 1.146728 -0.003158 
0.172003 1.199964 -0.003810 
-0.204749 1.216062 -0.004425 
-0.389720 1.177356 -0.004987 
-0.566216 1.107668 -0.004959 
-0.727078 1.007364 -0.005258 
-0.867885 0.881030 -0.004727 
-0.986214 0.733742 -0.004394 
-1.078319 0.568386 -0.004200 
-1.141827 0.390173 -0.003746 
-1.176463 0.204455 -0.003276 
-1.160721 -0.171906 -0.001846 
-1.111444 -0.354078 -0.000800 
-1.037152 -0.526512 -0.000117 
-0.939949 -0.687852 0.000600 
-0.819854 -0.833614 0.001050 
-0.680312 -0.960440 0.002141 
-0.523776 -1.065563 0.002639 
-0.353287 -1.146479 0.003278 
-0.171991 -1.200069 0.003676 
0.204792 -1.216023 0.004510 
0.389949 -1.177316 0.004968 
0.566300 -1.107702 0.005085 
0.727189 -1.007419 0.005302 
0.868069 -0.881232 0.004821 
0.986463 -0.733934 0.004464 
1.078497 -0.568614 0.004277 
1.142072 -0.390315 0.003815 
1.176562 -0.204434 0.003352 
0.015245 -1.205855 -0.184908 
0.014218 -1.157951 -0.368408 
0.012892 -1.081555 -0.541976 
0.011563 -0.978942 -0.701586 
0.009251 -0.853049 -0.843059 
0.006784 -0.707039 -0.963913 
0.004689 -0.544178 -1.061089 
0.002357 -0.368904 -1.132524 
0.000240 -0.185167 -1.176946 
-0.005301 0.193835 -1.181545 
-0.007357 0.378144 -1.140668 
-0.009398 0.555345 -1.071970 
-0.011215 0.719090 -0.976716 
-0.012645 0.866097 -0.856100 
-0.014589 0.991887 -0.714382 
-0.015073 1.093506 -0.553719 
-0.015619 1.166714 -0.378196 
-0.015976 1.210533 -0.193646 
-0.015261 1.205798 0.184792 
-0.014244 1.158063 0.368571 
-0.012839 1.082416 0.541642 
-0.011828 0.979554 0.701648 
-0.009422 0.853339 0.843283 
-0.006378 0.707082 0.963805 
-0.004743 0.544193 1.061089 
-0.002470 0.368849 1.132253 
-0.000254 0.184951 1.176515 
0.005087 -0.193037 1.180816 
0.007348 -0.378371 1.140218 
0.009591 -0.555123 1.071932 
0.011301 -0.719132 0.976695 
0.012622 -0.866237 0.856299 
0.014706 -0.992052 0.714499 
0.015182 -1.093733 0.553831 
0.015737 -1.166840 0.378208 
0.016061 -1.210568 0.193706 
-1.167049 0.014822 0.182993 
-1.122965 0.013837 0.364251 
-1.051856 0.012045 0.536528 
-0.954837 0.010631 0.696168 
-0.834716 0.007965 0.838412 
-0.694085 0.005642 0.959665 
-0.535007 0.003460 1.058246 
-0.364238 0.000923 1.131859 
-0.183285 -0.001494 1.177119 
0.188451 -0.006676 1.179681 
0.370069 -0.009151 1.136538 
0.542381 -0.011010 1.065268 
0.701336 -0.012209 0.967349 
0.842470 -0.014162 0.845576 
0.962449 -0.015592 0.702870 
1.057937 -0.015813 0.543257 
1.127772 -0.016251 0.369989 
1.169757 -0.016254 0.188503 
1.166820 -0.014798 -0.182939 
1.122675 -0.013783 -0.364076 
1.051330 -0.012013 -0.536406 
0.954499 -0.010442 -0.696017 
0.834653 -0.007984 -0.838164 
0.694276 -0.005876 -0.959677 
0.535148 -0.003288 -1.058709 
0.363845 -0.000770 -1.132257 
0.183665 0.000946 -1.177429 
-0.188410 0.006452 -1.180363 
-0.370130 0.009614 -1.137419 
-0.542595 0.010939 -1.065508 
-0.701777 0.012777 -0.967247 
-0.842456 0.014040 -0.845423 
-0.962338 0.015403 -0.702744 
-1.057791 0.015625 -0.543134 
-1.127670 0.016094 -0.369905 
-1.169806 0.016154 -0.188446 
0.818568 -0.420977 -0.408509 
0.432814 -0.820036 -0.438131 
0.394387 -0.387012 -0.829167 
0.888182 -0.322462 -0.330272 
0.315859 -0.922433 -0.329649 
0.679284 -0.353188 -0.641518 
0.567192 -0.653768 -0.534139 
0.876673 -0.511778 -0.102358 
0.190497 -0.629546 -0.756614 
0.605221 -0.183401 -0.761362 
0.862233 -0.176209 -0.452619 
0.223937 -0.873186 -0.475263 
0.941310 -0.161341 -0.259389 
0.798875 -0.313337 -0.510187 
0.695446 -0.673970 -0.338211 
0.484797 -0.897656 -0.196284 
0.647087 -0.793417 -0.168955 
0.529830 -0.493355 -0.695757 
0.786336 -0.159177 -0.577348 
0.573365 -0.784335 -0.343492 
0.972925 -0.147036 -0.108054 
0.784231 -0.650594 -0.146020 
0.174099 -0.973741 -0.272226 
0.935166 -0.333593 -0.153039 
0.739189 -0.493723 -0.480615 
0.291191 -0.983222 -0.146309 
0.546511 -0.312900 -0.770196 
0.345659 -0.723502 -0.619867 
0.838818 -0.496600 -0.283785 
0.491909 -0.190079 -0.837506 
0.161548 -0.771602 -0.629258 
0.200468 -0.486803 -0.846571 
0.178108 -0.320482 -0.922280 
0.357743 -0.569842 -0.745665 
0.641784 -0.501295 -0.594008 
0.147500 -1.012266 -0.119253 
0.455855 -0.619655 -0.654703 
0.325831 -0.220051 -0.909421 
0.201006 -0.133281 -0.960606 
0.476718 0.581602 -0.634161 
0.476180 0.784202 -0.359417 
0.779046 0.358759 -0.447373 
0.380021 0.470442 -0.782338 
0.324328 0.894125 -0.305433 
0.276004 0.316531 -0.898217 
0.160527 0.168418 -0.965222 
0.738269 0.203936 -0.600964 
0.643607 0.529160 -0.501759 
0.473660 0.845654 -0.172774 
0.583567 0.168721 -0.768701 
0.160252 0.894985 -0.446617 
0.152317 0.484861 -0.862248 
0.527720 0.680809 -0.468347 
0.127526 0.973479 -0.262301 
0.377136 0.137675 -0.901048 
0.111059 0.331525 -0.935009 
0.595288 0.695964 -0.333987 
0.096730 0.640016 -0.774162 
0.146529 0.770625 -0.636823 
0.280497 0.632595 -0.718979 
0.822994 0.468647 -0.167883 
0.585068 0.387383 -0.679914 
0.351305 0.772676 -0.520112 
0.728864 0.541025 -0.331965 
0.101382 1.005227 -0.117218 
0.263431 0.957502 -0.144704 
0.674540 0.678718 -0.148057 
0.922088 0.127299 -0.278932 
0.454805 0.303037 -0.817847 
0.823568 0.393916 -0.310546 
0.851731 0.153979 -0.440815 
0.909415 0.272829 -0.172433 
0.867095 0.266317 -0.333924 
0.958305 0.106880 -0.126952 
0.698066 0.373894 -0.562134 
0.444646 0.448874 0.749096 
0.426946 0.799890 0.375431 
0.803980 0.392143 0.366703 
0.323554 0.304224 0.879689 
0.279355 0.909385 0.289612 
0.877772 0.316892 0.252670 
0.939820 0.145497 0.210087 
0.527294 0.621163 0.534797 
0.098729 0.479394 0.860119 
0.737293 0.146803 0.631682 
0.435418 0.146483 0.875078 
0.401885 0.883773 0.176983 
0.832976 0.453031 0.165333 
0.258227 0.131908 0.947124 
0.229149 0.965978 0.136599 
0.909174 0.300671 0.123011 
0.602244 0.142277 0.767479 
0.503208 0.277994 0.796913 
0.300763 0.624414 0.699742 
0.742214 0.604782 0.111301 
0.637412 0.711076 0.165200 
0.567301 0.480726 0.629907 
0.175411 0.755374 0.620459 
0.729323 0.560860 0.292497 
0.600563 0.672396 0.359296 
0.368138 0.714435 0.565449 
0.523016 0.795946 0.216294 
0.086930 1.003624 0.117750 
0.111789 0.116562 0.977980 
0.445447 0.585100 0.645500 
0.137121 0.612853 0.766351 
0.677595 0.490216 0.490602 
0.624344 0.333769 0.673244 
0.151608 0.304318 0.928233 
0.142479 0.960654 0.262467 
0.761852 0.300670 0.524987 
0.823429 0.118947 0.520359 
0.194944 0.870147 0.445703 
0.864242 0.212112 0.395864 
0.244489 0.471665 0.830682 
0.534082 -0.828395 0.353090 
0.339303 -0.394197 0.871360 
0.350720 -0.911835 0.370306 
0.162754 -0.484663 0.876013 
0.514809 -0.178617 0.843590 
0.450388 -0.924952 0.197547 
0.621613 -0.580256 0.586431 
0.271411 -0.190058 0.946148 
0.251810 -0.992935 0.188314 
0.916566 -0.405034 0.168878 
0.777237 -0.432277 0.504406 
0.754419 -0.697649 0.149387 
0.865672 -0.215816 0.461300 
0.948687 -0.209080 0.238389 
0.514268 -0.346395 0.803736 
0.585461 -0.714019 0.481386 
0.631847 -0.815498 0.172078 
0.724980 -0.675321 0.313369 
[...]
POINT_DATA 1108
SCALARS u float 1
LOOKUP_TABLE default
0.030356
0.029888
0.034829
0.034950
0.010372
0.009979
0.023509
0.023588
0.028397
0.028788
0.008381
0.007934
0.034474
0.037921
0.038400
0.035673
0.030984
0.028029
0.029224
0.040463
0.045060
0.045647
0.041997
0.036230
0.030262
0.027710
0.034039
0.037640
0.037714
0.035143
0.030883
0.028054
0.029470
0.040724
0.045039
0.045806
0.042179
0.036278
0.030576
0.028015
0.013461
0.018053
0.023933
0.029288
0.033824
0.036303
0.036422
0.031530
0.027004
0.021799
0.017180
0.013493
0.010544
0.009278
0.012873
0.017856
0.023715
0.028923
0.033477
0.035988
0.036248
0.031393
0.026899
0.022217
0.017329
0.013702
0.010964
0.009546
0.029401
0.027812
0.025345
0.022540
0.019410
0.015482
0.011898
0.011048
0.014622
0.018440
0.021801
0.025272
0.027842
0.029370
0.029162
0.027810
0.025241
0.022506
0.019113
0.014874
0.011548
0.011054
0.014107
0.018179
0.022081
0.025635
0.028213
0.029786
0.029738
0.034752
0.037283
0.036154
0.032351
0.026969
0.021290
0.018583
0.021881
0.035502
0.041041
0.044305
0.042843
0.038124
0.032601
0.025642
0.019720
0.019172
0.029224
0.034211
0.036900
0.035487
0.032338
0.027182
0.021489
0.018583
0.021938
0.035500
0.041110
0.044389
0.042952
0.038401
0.032895
0.025928
0.019881
0.019121
0.025805
0.022052
0.018072
0.014621
0.011659
0.009830
0.009395
0.009257
0.008668
0.008890
0.010398
0.014401
0.018696
0.022932
0.027173
0.029955
0.030755
0.030508
0.025782
0.022136
0.018687
0.015160
0.011808
0.009640
0.009421
0.009553
0.009144
0.008578
0.010588
0.014360
0.018772
0.023093
0.027402
0.030228
0.030922
0.030594
0.023926
0.023867
0.022681
0.021275
0.018883
0.016822
0.015094
0.011519
0.009361
0.008709
0.010329
0.011938
0.013310
0.015684
0.017870
0.019479
0.021141
0.022452
0.024096
0.024107
0.023113
0.021502
0.019071
0.016767
0.014627
0.011421
0.008840
0.008109
0.010379
0.011754
0.013738
0.015609
0.017776
0.019422
0.021089
0.022344
0.025048
0.031129
0.012967
0.025319
0.034391
0.019197
0.025849
0.032245
0.015648
0.017326
0.024271
0.027547
0.026990
0.022395
0.032828
0.041161
0.040745
0.017974
0.022112
0.035122
0.027985
0.036198
0.033473
0.027790
0.024832
0.039598
0.015551
0.022580
0.028894
0.014891
0.020335
0.011620
0.009496
0.016545
0.021239
0.036679
0.020524
0.011247
0.009969
0.025744
0.028642
0.033606
0.021273
0.027885
0.016510
0.012647
0.028272
0.031070
0.029528
0.022344
0.029472
0.019495
0.029037
0.031535
0.015979
0.015761
0.031916
0.023895
0.026797
0.022614
0.038326
0.026456
0.026063
0.035219
0.031728
0.028565
0.035338
0.032475
0.020615
0.036149
0.031350
0.036525
0.034708
0.033149
0.030673
0.022142
0.027501
0.034545
0.016479
0.025833
0.035183
0.032760
0.028290
0.014089
0.025733
0.017184
0.027910
0.037750
0.012873
0.027228
0.036489
0.021583
0.020600
0.020479
0.037078
0.034288
0.027323
0.019727
0.035308
0.032350
0.024148
0.030722
0.029884
0.010626
0.024558
0.016608
0.031634
0.026023
0.012483
0.026641
0.030301
0.027670
0.023286
0.031172
0.016595
0.047346
0.023925
0.045886
0.023552
0.020151
0.047742
0.037709
0.016144
0.044142
0.031679
0.032924
0.041957
0.027238
0.028341
0.025446
0.043280
0.046714
0.042436
0.012401
0.017209
0.038338
0.041236
0.043624
0.036552
0.040048
0.025398
0.043272
0.033146
0.038943
0.035833
0.030130
0.038529
0.031036
0.030294
0.022730
0.019671
0.030902
0.039517
0.025900
0.028643
0.032742
0.021286
0.027935
0.016944
0.012955
0.028085
0.030931
0.029519
0.022509
0.029705
0.019517
0.028669
0.031625
0.016313
0.015743
0.031562
0.024059
0.027040
0.022924
0.037784
0.026452
0.026336
0.035320
0.031929
0.028608
0.034722
0.031978
0.020758
0.035721
0.030724
0.035901
0.033945
0.032787
0.030348
0.021946
0.027548
0.034500
0.015916
0.025486
0.035203
0.032579
0.028061
0.013707
0.025854
0.016654
0.027822
0.037051
0.012572
0.027380
0.036241
0.021709
0.020551
0.020540
0.036585
0.033650
0.026991
0.019841
0.035436
0.032155
0.024078
0.030634
0.029973
0.010169
0.024529
0.016443
0.031233
0.025913
0.012123
0.026454
0.030219
0.027771
0.023188
0.031544
0.016701
0.046965
0.023578
0.045427
0.022913
0.019991
0.047444
0.037311
0.015561
0.043880
0.031394
0.032649
0.041717
0.027040
0.028107
0.025165
0.042867
0.046496
0.042012
0.011835
0.016796
0.037885
0.040796
0.043251
0.036314
0.039544
0.025169
0.042792
0.032571
0.038596
0.035528
0.029825
0.038121
0.030738
0.029889
0.022668
0.019328
0.030623
0.039329
0.024950
0.031552
0.013188
0.025121
0.034879
0.019155
0.026007
0.032056
0.015896
0.017360
0.023955
0.028118
0.026697
0.022244
0.032713
0.041124
0.040112
0.018137
0.021936
0.034726
0.027600
0.036183
0.033396
0.027459
0.024776
0.039516
0.015649
0.022966
0.028834
0.015099
0.020648
0.011921
0.009676
0.016904
0.021304
0.036373
0.020873
0.011421
0.010128
0.039236
0.030706
0.019172
0.022459
0.043910
0.019229
0.041315
0.013851
0.018632
0.039270
0.009105
0.019509
0.033183
0.026679
0.017338
0.035239
0.013283
0.020510
0.044588
0.033917
0.031538
0.046232
0.018007
0.036774
0.017041
0.036202
0.022733
0.044135
0.019067
0.036445
0.024303
0.025136
0.031129
0.036096
0.029804
0.043648
0.026842
0.015933
0.029379
0.018689
0.023521
0.014973
0.025556
0.021321
0.039209
0.020568
0.041358
0.039283
0.042262
0.027803
0.045834
0.032541
0.040938
0.034071
0.019894
0.038139
0.026353
0.016325
0.037408
0.011733
0.011506
0.010373
0.028167
0.021036
0.013818
0.018551
0.034343
0.020198
0.032895
0.012148
0.020896
0.032027
0.009711
0.025483
0.016703
0.014381
0.021507
0.027091
0.017865
0.013531
0.033554
0.023696
0.023778
0.035947
0.024144
0.028859
0.011502
0.024691
0.018894
0.035848
0.025299
0.028358
0.017991
0.016322
0.022740
0.025570
0.019679
0.032439
0.018322
0.021079
0.023251
0.013166
0.021220
0.017525
0.020930
0.017292
0.029933
0.018801
0.032085
0.029420
0.034090
0.020264
0.036150
0.021338
0.029368
0.027691
0.025262
0.017555
0.028017
0.016238
0.029897
0.014377
0.010095
0.011705
0.025156
0.024963
0.018114
0.014417
0.030386
0.012513
0.030827
0.017160
0.010092
0.025879
0.020276
0.032605
0.015267
0.015338
0.036410
0.012401
0.024273
0.014773
0.027200
0.020590
0.015499
0.022821
0.034972
0.011635
0.016057
0.026431
0.012614
0.025399
0.030864
0.010141
0.022423
0.019639
0.028162
0.028886
0.023094
0.031566
0.018552
0.034293
0.011605
0.017161
0.027514
0.013580
0.030294
0.016166
0.034243
0.015321
0.033673
0.022275
0.017610
0.016194
0.027760
0.029516
0.022711
0.026906
0.008652
0.019608
0.032178
0.021227
0.018896
0.019344
0.019136
0.018143
0.013211
0.022489
0.032105
0.009388
0.016735
0.008888
0.017335
0.010114
0.020019
0.013417
0.031184
0.019432
0.035871
0.009230
0.026853
0.020184
0.040291
0.014227
0.011128
0.013277
0.017108
0.008601
0.019608
0.039214
0.017278
0.011228
0.018713
0.008986
0.018176
0.027848
0.027013
0.037341
0.019890
0.029221
0.022587
0.016900
0.017613
0.009094
0.010429
0.033666
0.024850
0.034803
0.014759
0.038348
0.010090
0.024286
0.007914
0.019415
0.013193
0.016633
0.010565
0.015738
0.012450
0.017644
0.020540
0.009060
0.023536
0.012935
0.034392
0.015892
0.031470
0.030875
0.029855
0.023178
0.015115
0.032748
0.018275
0.030766
0.017181
0.030652
0.018825
0.015799
0.022942
0.019281
0.014990
0.014516
0.023251
0.011616
0.015401
0.026187
0.033550
0.035874
0.024862
0.017087
0.025461
0.013316
0.026930
0.034727
0.018816
0.020213
0.025952
0.019215
0.011672
0.009931
0.022525
0.019015
0.022981
0.025994
0.021253
0.031670
0.012807
0.019007
0.017977
0.014870
0.017276
0.011837
0.027058
0.017136
0.029549
0.017069
0.030881
0.033766
0.034882
0.021669
0.025059
0.029301
0.022748
0.026659
0.027498
0.020647
0.011821
0.030365
0.009702
0.008014
0.013274
0.022338
0.029420
0.009412
0.016849
0.008890
0.017465
0.033247
0.009962
0.020134
0.032568
0.013183
0.031328
0.019081
0.009183
0.027062
0.019359
0.040674
0.014338
0.011163
0.013193
0.017236
0.008575
0.019864
0.025782
0.017174
0.011016
0.018857
0.008808
0.018251
0.027924
0.019465
0.028082
0.022239
0.016588
0.017663
0.009003
0.010460
0.034345
0.023860
0.034676
0.014587
0.038255
0.009888
0.024293
0.007908
0.019563
0.013290
0.016793
0.010498
0.015840
0.012309
0.017593
0.020544
0.008608
0.012587
0.023278
0.035748
0.015998
0.026015
0.039715
0.037758
0.039629
0.031101
0.017580
0.022720
0.044275
0.019450
0.041591
0.018738
0.039413
0.019483
0.033522
0.017447
0.026996
0.017517
0.035626
0.013514
0.020080
0.044911
0.034303
0.031810
0.046476
0.018118
0.037114
0.012493
0.036582
0.023006
0.044360
0.019109
0.036611
0.024584
0.014902
0.009879
0.024144
0.031395
0.036513
0.029834
0.044013
0.027156
0.016112
0.029681
0.017857
0.023077
0.015025
0.025855
0.021498
0.039590
0.020820
0.041773
0.039696
0.042487
0.028108
0.046154
0.032844
0.041290
0.034219
0.019930
0.026270
0.038461
0.011630
0.037717
0.009390
0.008375
0.016880
0.027973
0.032180
0.018950
0.012763
0.020205
0.012148
0.032813
0.025560
0.009536
0.029719
0.029844
0.023218
0.027214
0.023795
0.018414
0.035521
0.026229
0.014619
0.017167
0.022116
0.013338
0.018847
0.014161
0.029414
0.022228
0.023908
0.010954
0.020991
0.010877
0.031949
0.030185
0.027704
0.025066
0.025576
0.016772
0.018848
0.029926
0.020399
0.033438
0.029966
0.033782
0.023433
0.023264
0.020005
0.019285
0.015938
0.017108
0.017165
0.019135
0.012851
0.020821
0.019765
0.009117
0.025433
0.022539
0.024545
0.035265
0.021281
0.036029
0.027458
0.033645
0.010310
0.023102
0.031959
0.019119
0.023968
0.009532
0.012318
0.032694
0.013553
0.008720
0.024657
0.032214
0.024967
0.025322
0.030195
0.031549
0.023314
0.028469
0.018775
0.016016
0.043225
0.035987
0.034805
0.032127
0.032003
0.034306
0.031729
0.032836
0.033179
0.028241
0.012159
0.018094
0.025661
0.041274
0.048267
0.028556
0.034085
0.041619
0.033788
0.031941
0.026451
0.020507
0.019696
0.038624
0.028644
0.020712
0.031342
0.031713
0.012795
0.033254
0.032605
0.024038
0.029954
0.009516
0.013359
0.023923
0.018542
0.040040
0.034524
0.030052
0.034284
0.014398
0.013741
0.010726
0.024340
0.037755
0.011349
0.017473
0.030976
0.034800
0.033671
0.031314
0.011735
0.019927
0.028170
0.015247
0.012622
0.028114
0.029324
0.017452
0.022708
0.028358
0.032366
0.029973
0.035522
0.037096
0.046082
0.039990
0.042320
0.025727
0.036280
0.044235
0.030818
0.020035
0.024603
0.016944
0.011314
0.012965
0.037181
0.018062
0.031067
0.012259
