# vtk DataFile Version 2.0
Unstructured Grid Example
ASCII
DATASET UNSTRUCTURED_GRID
POINTS 1108 float
1.020249 -0.014470 -0.005716 
-1.020240 0.014433 0.005609 
-0.014097 0.979999 0.019440 
0.014420 -0.979621 -0.019501 
-0.005788 0.019193 0.999895 
0.005690 -0.019480 -0.999762 
1.219070 -0.009727 -0.003726 
-1.219386 0.009347 0.004025 
-0.009702 1.181091 0.012906 
0.009250 -1.180652 -0.012758 
-0.003961 0.012879 1.199968 
0.004083 -0.012868 -1.199733 
0.994812 0.179202 -0.001948 
0.930765 0.364627 0.002179 
0.831593 0.534617 0.005801 
0.701658 0.682572 0.009493 
0.546218 0.804659 0.013468 
0.370755 0.897207 0.015883 
0.181925 0.956393 0.018002 
-0.210831 0.967087 0.020152 
-0.401184 0.917447 0.020175 
-0.577390 0.832109 0.019280 
-0.732011 0.713121 0.017649 
-0.858689 0.565295 0.015510 
-0.951158 0.394655 0.012494 
-1.005601 0.208315 0.009155 
-0.994643 -0.179215 0.001985 
-0.930485 -0.364677 -0.001997 
-0.831445 -0.534758 -0.005745 
-0.701673 -0.682866 -0.009417 
-0.546268 -0.804504 -0.012947 
-0.370790 -0.896697 -0.015596 
-0.181816 -0.955973 -0.017978 
0.210932 -0.966923 -0.020152 
0.401236 -0.917137 -0.020311 
0.577337 -0.831912 -0.019429 
0.732171 -0.713230 -0.017958 
0.858561 -0.565393 -0.015742 
0.951021 -0.394807 -0.012745 
1.005198 -0.208388 -0.009321 
-0.002858 -0.173173 0.972981 
0.000167 -0.356791 0.908988 
0.003479 -0.526086 0.811211 
0.005801 -0.674420 0.684307 
0.008517 -0.797740 0.531625 
0.010812 -0.892047 0.359646 
0.012810 -0.954032 0.173967 
0.015246 -0.968706 -0.213647 
0.015499 -0.919985 -0.401151 
0.015246 -0.834756 -0.573800 
0.014181 -0.715660 -0.724924 
0.012874 -0.567787 -0.848019 
0.010699 -0.397500 -0.936807 
0.008429 -0.212236 -0.987832 
0.002828 0.173020 -0.972816 
-0.000192 0.356736 -0.909096 
-0.003130 0.526002 -0.811222 
-0.005912 0.674558 -0.683941 
-0.008580 0.797974 -0.531556 
-0.010884 0.892316 -0.359676 
-0.012778 0.954191 -0.173960 
-0.015063 0.968900 0.213595 
-0.015128 0.920450 0.400835 
-0.014673 0.834800 0.573784 
-0.013922 0.715679 0.724585 
-0.012237 0.567624 0.847643 
-0.010799 0.397257 0.936753 
-0.008545 0.212071 0.987887 
0.998030 -0.010024 0.190353 
0.937305 -0.005633 0.378494 
0.840561 -0.000720 0.552081 
0.712930 0.003350 0.703784 
0.557884 0.008186 0.827891 
0.381812 0.012503 0.920924 
0.191810 0.016152 0.978874 
-0.203595 0.021432 0.983366 
-0.393947 0.023265 0.928784 
-0.570580 0.023705 0.838792 
-0.725311 0.023491 0.715707 
-0.852036 0.022611 0.564543 
-0.945834 0.020425 0.390836 
-1.002497 0.017713 0.201911 
-0.998108 0.010008 -0.190481 
-0.937439 0.005573 -0.378679 
-0.841019 0.001263 -0.552196 
-0.713195 -0.003080 -0.703516 
-0.558376 -0.007765 -0.827911 
-0.381936 -0.012633 -0.921116 
-0.191951 -0.016390 -0.979072 
0.203060 -0.021404 -0.982677 
0.393858 -0.023355 -0.928280 
0.570638 -0.023988 -0.838480 
0.725513 -0.023803 -0.715726 
0.852415 -0.022862 -0.564696 
0.945843 -0.020688 -0.391068 
1.002379 -0.017754 -0.202200 
1.199053 0.178104 -0.001552 
1.148802 0.359684 0.000362 
1.070708 0.530989 0.002300 
0.966926 0.688242 0.004277 
0.840311 0.828311 0.006371 
0.694661 0.947169 0.008715 
0.533445 1.043136 0.009602 
0.360020 1.115686 0.011279 
0.177870 1.161924 0.012057 
-0.197461 1.171440 0.013228 
-0.382050 1.133948 0.013469 
-0.558841 1.068505 0.013287 
-0.722866 0.975421 0.012898 
-0.869566 0.856555 0.011994 
-0.995334 0.715785 0.010630 
-1.095545 0.556246 0.008966 
-1.167459 0.381126 0.007852 
-1.209115 0.197268 0.005936 
-1.198918 -0.178176 0.001615 
-1.148765 -0.359509 -0.000532 
-1.070485 -0.531028 -0.002485 
-0.966962 -0.688148 -0.004354 
-0.840518 -0.828344 -0.006411 
-0.694751 -0.947110 -0.008643 
-0.533347 -1.042938 -0.009596 
-0.359895 -1.115052 -0.011250 
-0.177675 -1.161471 -0.012114 
0.197440 -1.171356 -0.013378 
0.381994 -1.133762 -0.013511 
0.558706 -1.068365 -0.013250 
0.722737 -0.975381 -0.012827 
0.869635 -0.856783 -0.011982 
0.995355 -0.715996 -0.010719 
1.095441 -0.556390 -0.009088 
1.167283 -0.381240 -0.007941 
1.208791 -0.197516 -0.005938 
0.010029 -1.172950 -0.199326 
0.010152 -1.136159 -0.382742 
0.010226 -1.070652 -0.558230 
0.010171 -0.977058 -0.720372 
0.009384 -0.858114 -0.864132 
0.008255 -0.717004 -0.986717 
0.007672 -0.556734 -1.084169 
0.006621 -0.382616 -1.152911 
0.005342 -0.199565 -1.191618 
0.001901 0.172885 -1.178174 
0.000786 0.352752 -1.127909 
-0.001210 0.522576 -1.050208 
-0.002345 0.678893 -0.948432 
-0.004486 0.819073 -0.824876 
-0.005453 0.938754 -0.682267 
-0.006706 1.036530 -0.523687 
-0.007765 1.111469 -0.352839 
-0.008705 1.159828 -0.172702 
-0.009886 1.173323 0.199248 
-0.010180 1.136689 0.382755 
-0.010644 1.070634 0.558512 
-0.009945 0.976895 0.720459 
-0.009232 0.857866 0.864046 
-0.008615 0.717079 0.986424 
-0.007493 0.556992 1.083688 
-0.006571 0.382793 1.152836 
-0.005247 0.199614 1.191599 
-0.002162 -0.172733 1.178507 
-0.000626 -0.352775 1.127761 
0.000838 -0.522514 1.050151 
0.002001 -0.679000 0.949157 
0.004415 -0.818992 0.825122 
0.005498 -0.938661 0.682199 
0.006665 -1.036297 0.523584 
0.007701 -1.111247 0.352845 
0.008696 -1.159606 0.172719 
-1.206083 0.011381 0.193464 
-1.162687 0.012730 0.378350 
-1.089703 0.014285 0.553656 
-0.989434 0.015346 0.714878 
-0.864438 0.015916 0.857805 
-0.718278 0.015774 0.979588 
-0.554824 0.015690 1.076155 
-0.378524 0.015118 1.145959 
-0.193209 0.014346 1.187200 
0.185168 0.011170 1.183530 
0.369752 0.008999 1.138318 
0.544869 0.006944 1.066075 
0.707087 0.004788 0.968657 
0.852666 0.002890 0.846425 
0.978056 -0.000014 0.703327 
1.079133 -0.002518 0.543206 
1.154964 -0.005203 0.369518 
1.201794 -0.007151 0.185377 
1.206052 -0.011538 -0.193361 
1.162710 -0.013002 -0.378262 
1.090039 -0.014425 -0.553693 
0.989676 -0.015469 -0.715010 
0.864547 -0.016009 -0.857877 
0.718226 -0.015771 -0.979533 
0.554640 -0.015594 -1.075825 
0.378088 -0.015178 -1.145259 
0.193596 -0.014257 -1.187081 
-0.185102 -0.010948 -1.183622 
-0.369840 -0.008967 -1.138538 
-0.545064 -0.006815 -1.066088 
-0.707415 -0.005541 -0.967946 
-0.852989 -0.002595 -0.846397 
-0.978305 0.000152 -0.703634 
-1.079380 0.002427 -0.543533 
-1.155077 0.005262 -0.369579 
-1.201926 0.007080 -0.185284 
0.849106 -0.416627 -0.432515 
0.441190 -0.805801 -0.465050 
0.413742 -0.398450 -0.855985 
0.922339 -0.317723 -0.351707 
0.317033 -0.898276 -0.355491 
0.708736 -0.358137 -0.668190 
0.584844 -0.648705 -0.562128 
0.899549 -0.494370 -0.124317 
0.198322 -0.634438 -0.784100 
0.633855 -0.194320 -0.785453 
0.899886 -0.177513 -0.473388 
0.226223 -0.858937 -0.501408 
0.980118 -0.156684 -0.276930 
0.832257 -0.314095 -0.534362 
0.712822 -0.660284 -0.364587 
0.487441 -0.866973 -0.222601 
0.655704 -0.767055 -0.195050 
0.551819 -0.498354 -0.724776 
0.821982 -0.164671 -0.600018 
0.584252 -0.766835 -0.370278 
1.010406 -0.138662 -0.122466 
0.800781 -0.629764 -0.170168 
0.170368 -0.944759 -0.297331 
0.967068 -0.322430 -0.172272 
0.766349 -0.490359 -0.507113 
0.287360 -0.946033 -0.172513 
0.572157 -0.322881 -0.796939 
0.356091 -0.720444 -0.647764 
0.864996 -0.486441 -0.307573 
0.516770 -0.203752 -0.861169 
0.165555 -0.768425 -0.655718 
0.211323 -0.497802 -0.872989 
0.190648 -0.336523 -0.945142 
0.372542 -0.575082 -0.774330 
0.666281 -0.502562 -0.621738 
0.140620 -0.972769 -0.144813 
0.472527 -0.620713 -0.683366 
0.344425 -0.236836 -0.931425 
0.216086 -0.153218 -0.977124 
0.498667 0.549715 -0.623475 
0.495841 0.749851 -0.342313 
0.815142 0.346589 -0.451677 
0.400354 0.437494 -0.773302 
0.339740 0.851369 -0.282877 
0.294049 0.285662 -0.894281 
0.175129 0.140372 -0.966611 
0.773508 0.190928 -0.611667 
0.672147 0.507077 -0.497471 
0.492774 0.815233 -0.154875 
0.612696 0.150451 -0.779260 
0.173581 0.842372 -0.419057 
0.167666 0.444992 -0.846568 
0.549917 0.649820 -0.455759 
0.139864 0.922237 -0.235134 
0.398363 0.114230 -0.908812 
0.124926 0.297018 -0.926264 
0.619984 0.670824 -0.322607 
0.110996 0.592622 -0.750115 
0.160882 0.719896 -0.610488 
0.297122 0.590530 -0.700142 
0.859428 0.463153 -0.166039 
0.612795 0.364501 -0.680377 
0.368343 0.729918 -0.499152 
0.760775 0.525688 -0.328395 
0.112585 0.958887 -0.091483 
0.277285 0.916087 -0.121687 
0.702521 0.662809 -0.137946 
0.963698 0.126804 -0.289878 
0.478307 0.277613 -0.819028 
0.860952 0.385761 -0.313063 
0.892188 0.147800 -0.453400 
0.950386 0.272896 -0.177193 
0.907324 0.261292 -0.341499 
0.999938 0.111183 -0.135964 
0.730492 0.356884 -0.565222 
0.457564 0.462605 0.766198 
0.444008 0.792966 0.394465 
0.834795 0.401757 0.375172 
0.328984 0.323105 0.895182 
0.292810 0.891132 0.310535 
0.912514 0.325739 0.256878 
0.975600 0.157418 0.208280 
0.546664 0.626478 0.552292 
0.098932 0.491707 0.883466 
0.757593 0.166154 0.636648 
0.441553 0.168990 0.883304 
0.418418 0.864489 0.196338 
0.867746 0.456937 0.171643 
0.258290 0.154666 0.956908 
0.241622 0.936712 0.158395 
0.947126 0.307559 0.124402 
0.615574 0.163606 0.773803 
0.514955 0.296303 0.809395 
0.310547 0.631183 0.721036 
0.773073 0.601306 0.121046 
0.663168 0.703766 0.178866 
0.586262 0.492275 0.645346 
0.182543 0.755049 0.643013 
0.758398 0.563832 0.304027 
0.624107 0.672370 0.374703 
0.382001 0.715703 0.585953 
0.543771 0.784635 0.233448 
0.096621 0.968250 0.141445 
0.106787 0.139622 0.988959 
0.460467 0.593461 0.664145 
0.140555 0.620370 0.789588 
0.702185 0.500038 0.503599 
0.642826 0.349687 0.684979 
0.150997 0.322308 0.946135 
0.152391 0.936004 0.284953 
0.787249 0.315451 0.533693 
0.847813 0.137786 0.522320 
0.204366 0.858864 0.468115 
0.894352 0.225908 0.398910 
0.249384 0.484998 0.851338 
0.526391 -0.775757 0.322478 
0.332057 -0.352944 0.852840 
0.339714 -0.853507 0.337770 
0.151813 -0.440233 0.854656 
0.516164 -0.146397 0.835690 
0.442858 -0.873195 0.167534 
0.617522 -0.535405 0.561087 
0.266348 -0.157317 0.939340 
0.241847 -0.937626 0.158221 
0.936726 -0.381959 0.151176 
0.783195 -0.397460 0.485685 
0.760437 -0.663060 0.124775 
0.882670 -0.190208 0.450977 
0.974750 -0.189585 0.226855 
0.511557 -0.307973 0.787188 
0.579167 -0.664271 0.452114 
0.630669 -0.771884 0.144508 
0.726382 -0.634553 0.288004 
[...]
POINT_DATA 1108
SCALARS u float 1
LOOKUP_TABLE default
0.025536
0.025484
0.031252
0.031678
0.020047
0.020296
0.021729
0.021894
0.024865
0.024954
0.013474
0.013503
0.021283
0.019447
0.021742
0.026866
0.031426
0.033257
0.033051
0.029009
0.028119
0.029124
0.031111
0.032803
0.032304
0.029573
0.021166
0.019284
0.021590
0.026567
0.031326
0.033520
0.033393
0.029142
0.028323
0.029180
0.031435
0.032837
0.032343
0.029320
0.023440
0.029870
0.035942
0.040273
0.042232
0.040755
0.036415
0.026883
0.024423
0.023991
0.024325
0.024266
0.022386
0.020364
0.023634
0.029864
0.035973
0.040386
0.042098
0.040547
0.036291
0.026656
0.023877
0.023625
0.023933
0.023593
0.022243
0.020293
0.020502
0.015151
0.009765
0.007494
0.009229
0.012877
0.016592
0.023202
0.026309
0.028997
0.030939
0.031855
0.031075
0.028839
0.020529
0.015197
0.010206
0.007710
0.008991
0.012953
0.016776
0.022918
0.026262
0.029182
0.031300
0.032321
0.031316
0.028846
0.016914
0.013450
0.014070
0.018052
0.022734
0.027376
0.030011
0.029971
0.028025
0.021445
0.019002
0.019353
0.022240
0.025512
0.028687
0.030088
0.029221
0.026402
0.016769
0.013581
0.014041
0.018152
0.022642
0.027369
0.030217
0.030549
0.028495
0.021582
0.019072
0.019234
0.022089
0.025636
0.028815
0.030090
0.029128
0.026201
0.019646
0.016471
0.016951
0.019190
0.020577
0.021374
0.020625
0.017847
0.014480
0.016536
0.022484
0.029255
0.034732
0.038041
0.039880
0.039473
0.035659
0.030763
0.019294
0.016341
0.017426
0.019087
0.020328
0.021342
0.020365
0.017898
0.014477
0.016568
0.022549
0.029326
0.034165
0.037943
0.040001
0.039713
0.035829
0.030936
0.024444
0.026029
0.026509
0.025940
0.024341
0.022204
0.019878
0.017604
0.015486
0.011583
0.009530
0.007619
0.005536
0.005468
0.007511
0.010361
0.014709
0.018197
0.024467
0.026157
0.026857
0.026235
0.024501
0.022150
0.019596
0.017295
0.015531
0.011370
0.009425
0.007500
0.006578
0.005583
0.007678
0.010533
0.014829
0.018302
0.040293
0.034766
0.033892
0.038103
0.029432
0.039363
0.039504
0.036070
0.030633
0.034031
0.035983
0.029249
0.033688
0.039171
0.039487
0.031440
0.034671
0.039080
0.035896
0.036879
0.030488
0.036224
0.026650
0.035242
0.041603
0.027793
0.036060
0.034821
0.039495
0.031850
0.028975
0.029669
0.026736
0.035359
0.040887
0.027736
0.038010
0.028584
0.024353
0.036900
0.039976
0.027261
0.034273
0.041514
0.029349
0.024308
0.028187
0.032598
0.037184
0.028018
0.043559
0.034537
0.038354
0.040563
0.026545
0.028492
0.035853
0.039518
0.042832
0.040024
0.023841
0.030581
0.043058
0.029799
0.035877
0.037932
0.030217
0.026588
0.029238
0.025560
0.027896
0.022672
0.025318
0.024676
0.028787
0.008674
0.018993
0.011092
0.011580
0.023238
0.013934
0.016948
0.011622
0.019799
0.004833
0.008810
0.026452
0.016587
0.013618
0.028586
0.017098
0.004434
0.006001
0.014284
0.021057
0.022611
0.007251
0.018152
0.015458
0.016210
0.014580
0.023548
0.028817
0.017276
0.010700
0.019029
0.008803
0.003725
0.016761
0.024772
0.005876
0.008357
0.020281
0.010868
0.015273
0.027305
0.024724
0.032183
0.030941
0.014661
0.028427
0.022208
0.019348
0.031948
0.027553
0.018605
0.027980
0.015955
0.022570
0.019548
0.025418
0.027028
0.024677
0.020460
0.025056
0.037989
0.037874
0.031304
0.028471
0.027758
0.012847
0.035256
0.025527
0.021624
0.023582
0.018059
0.032926
0.035898
0.030797
0.012997
0.017897
0.021556
0.032276
0.036601
0.040018
0.027065
0.033925
0.041929
0.029087
0.024821
0.027709
0.032140
0.037256
0.027715
0.043834
0.034262
0.037679
0.040699
0.026404
0.028575
0.035671
0.039354
0.042627
0.039641
0.023913
0.030185
0.042573
0.029406
0.036219
0.038080
0.029780
0.026494
0.028795
0.025262
0.027507
0.022816
0.025280
0.024546
0.028468
0.009137
0.019490
0.011263
0.011557
0.023477
0.013368
0.016832
0.012065
0.019934
0.005285
0.008705
0.026741
0.016742
0.013722
0.028998
0.016939
0.004556
0.006091
0.014536
0.020820
0.022318
0.007446
0.018809
0.015621
0.016704
0.014803
0.023899
0.029077
0.017520
0.011189
0.019298
0.009529
0.003907
0.017059
0.025073
0.006645
0.008681
0.020500
0.010783
0.014984
0.027325
0.024939
0.032130
0.031280
0.014685
0.028353
0.022244
0.019626
0.031811
0.027524
0.018691
0.027810
0.016301
0.022749
0.019462
0.025163
0.027139
0.024326
0.020644
0.025257
0.037980
0.037810
0.031354
0.028449
0.027798
0.012958
0.035248
0.025764
0.021602
0.023528
0.018107
0.032909
0.036241
0.030684
0.012991
0.017987
0.021775
0.032107
0.039908
0.034271
0.033710
0.037783
0.029360
0.038886
0.039037
0.036050
0.030003
0.033686
0.035578
0.028677
0.033657
0.038657
0.038983
0.031065
0.033887
0.038664
0.035387
0.036042
0.030648
0.036025
0.026442
0.035122
0.041087
0.027544
0.035762
0.034303
0.039349
0.031727
0.028473
0.029264
0.026611
0.034885
0.040391
0.027385
0.037520
0.028695
0.024508
0.015804
0.018917
0.021301
0.019311
0.023846
0.020753
0.026154
0.018606
0.024725
0.023322
0.015562
0.009473
0.032239
0.029819
0.010868
0.035771
0.009473
0.030733
0.017606
0.016969
0.023746
0.018327
0.015771
0.033038
0.025126
0.016928
0.024996
0.020184
0.019892
0.029755
0.019534
0.014493
0.025954
0.022042
0.015084
0.023761
0.014354
0.007769
0.037215
0.012164
0.026733
0.007833
0.034453
0.011134
0.030624
0.015309
0.028907
0.018611
0.020450
0.020413
0.019877
0.013883
0.019963
0.025882
0.022766
0.026191
0.012253
0.015390
0.023577
0.012368
0.021547
0.012588
0.031070
0.029730
0.025983
0.038827
0.016470
0.037932
0.017207
0.021126
0.033365
0.017003
0.017395
0.018779
0.040435
0.035279
0.041885
0.020493
0.018217
0.033069
0.024293
0.036050
0.032674
0.018784
0.039730
0.021137
0.027185
0.031136
0.035486
0.015293
0.035135
0.020920
0.026326
0.034875
0.023362
0.026175
0.034830
0.019288
0.040265
0.040614
0.021346
0.031311
0.019513
0.038160
0.019824
0.042116
0.018127
0.041994
0.017554
0.030335
0.024274
0.037469
0.017730
0.036568
0.025247
0.020380
0.030488
0.039463
0.021222
0.020470
0.028061
0.017666
0.022655
0.016650
0.002989
0.008971
0.014946
0.008672
0.008042
0.010702
0.010939
0.019062
0.009936
0.014249
0.022095
0.014885
0.012759
0.012353
0.012783
0.015623
0.023790
0.014518
0.004735
0.003869
0.004771
0.006660
0.011006
0.015200
0.014618
0.005295
0.007502
0.010233
0.013860
0.012943
0.012624
0.010348
0.012045
0.008176
0.007368
0.006530
0.007882
0.018022
0.017229
0.012454
0.017047
0.015884
0.021358
0.011438
0.009795
0.011005
0.008844
0.003240
0.003422
0.006391
0.006516
0.006214
0.005484
0.017460
0.011918
0.008821
0.009248
0.018641
0.004623
0.024245
0.016537
0.025268
0.037303
0.036262
0.024247
0.026550
0.035294
0.022656
0.033467
0.017936
0.028841
0.029636
0.034316
0.027393
0.030385
0.026194
0.034441
0.021765
0.024519
0.036801
0.033447
0.026713
0.032501
0.022936
0.033438
0.021169
0.038314
0.022428
0.031849
0.018221
0.030409
0.030521
0.019444
0.018375
0.032604
0.034763
0.038456
0.035952
0.038672
0.032621
0.024604
0.030879
0.026473
0.028145
0.024135
0.028413
0.031034
0.037844
0.027831
0.037353
0.032626
0.030737
0.028423
0.035620
0.036234
0.039133
0.026251
0.015309
0.038572
0.033958
0.018866
0.027389
0.017656
0.019990
0.012071
0.005900
0.009598
0.009234
0.019012
0.011012
0.019816
0.013905
0.024843
0.012362
0.002826
0.003755
0.013304
0.014146
0.006550
0.016708
0.004778
0.016787
0.011393
0.013164
0.023468
0.015753
0.010669
0.006825
0.007455
0.011075
0.024784
0.019613
0.014228
0.007573
0.014130
0.009160
0.003540
0.009617
0.007232
0.004941
0.013290
0.006323
0.016143
0.004832
0.005697
0.012320
0.003465
0.017139
0.004753
0.011592
0.007381
0.015125
0.017399
0.017749
0.009821
0.020074
0.010422
0.006730
0.023358
0.017397
0.003828
0.010502
0.010120
0.022256
0.011789
0.012046
0.037706
0.036795
0.025844
0.026456
0.035553
0.022531
0.033554
0.020315
0.017710
0.028805
0.018352
0.030158
0.034933
0.027778
0.026663
0.034591
0.022410
0.024149
0.037241
0.033659
0.026701
0.032874
0.022989
0.033510
0.020998
0.038782
0.022179
0.032017
0.018104
0.030313
0.031380
0.033165
0.036012
0.039084
0.036447
0.039012
0.032823
0.025022
0.031387
0.027262
0.031984
0.024468
0.028511
0.031480
0.038102
0.027993
0.037501
0.032932
0.031086
0.028386
0.035995
0.036601
0.039632
0.026156
0.015264
0.034408
0.039135
0.025842
0.027572
0.017409
0.020283
0.018434
0.015970
0.018818
0.019289
0.019062
0.023929
0.020579
0.026279
0.024491
0.023425
0.009425
0.032303
0.011390
0.029734
0.010642
0.035862
0.009942
0.029895
0.017646
0.016961
0.023724
0.018255
0.015593
0.033145
0.013062
0.017003
0.024940
0.020232
0.019719
0.029879
0.020444
0.023410
0.012686
0.014062
0.026129
0.022062
0.015049
0.023835
0.014242
0.007909
0.037252
0.014706
0.025772
0.008166
0.034357
0.011036
0.030695
0.015020
0.028993
0.018680
0.020307
0.020325
0.019925
0.013894
0.020145
0.026029
0.022613
0.012152
0.026270
0.016641
0.023687
0.016802
0.014325
0.037128
0.025572
0.017018
0.040806
0.023204
0.038449
0.020061
0.016791
0.035312
0.018947
0.019115
0.029906
0.018922
0.018625
0.033232
0.018235
0.018485
0.020888
0.034710
0.041209
0.041908
0.032631
0.035775
0.017597
0.019285
0.031736
0.040160
0.025396
0.033842
0.016021
0.020576
0.026758
0.020441
0.025944
0.031157
0.025740
0.039844
0.027914
0.020189
0.023474
0.017912
0.023625
0.020862
0.035856
0.020107
0.038773
0.020324
0.040327
0.038015
0.042063
0.028852
0.037105
0.030191
0.015422
0.030792
0.023143
0.034098
0.017693
0.040498
0.014988
0.021918
0.015059
0.018052
0.034774
0.016164
0.023242
0.031880
0.024380
0.025713
0.030378
0.015925
0.019156
0.027102
0.042733
0.019917
0.003010
0.025397
0.026177
0.036460
0.002903
0.034515
0.014506
0.033767
0.037638
0.031465
0.039405
0.020941
0.026651
0.032941
0.026816
0.022972
0.019274
0.018598
0.022853
0.028928
0.028197
0.031591
0.023304
0.018976
0.031555
0.021200
0.030311
0.033651
0.011443
0.024873
0.018726
0.024429
0.010134
0.031125
0.030832
0.018647
0.036617
0.041519
0.015133
0.004918
0.025973
0.028130
0.040688
0.035212
0.038892
0.026436
0.035133
0.026668
0.033648
0.037058
0.028816
0.042823
0.022797
0.020275
0.013233
0.031280
0.020609
0.012924
0.018062
0.020290
0.012498
0.024113
0.022750
0.021112
0.004234
0.011061
0.024848
0.031712
0.026694
0.027556
0.013311
0.022145
0.024129
0.031966
0.029849
0.032855
0.035470
0.033023
0.034650
0.033532
0.033857
0.039867
0.029846
0.027048
0.031023
0.031026
0.018054
0.020884
0.009950
