# vtk DataFile Version 2.0
Unstructured Grid Example
ASCII
DATASET UNSTRUCTURED_GRID
POINTS 1108 float
1.002062 0.000789 -0.019464 
-1.002063 -0.000766 0.019281 
0.001011 1.011293 -0.002973 
-0.000873 -1.011548 0.003089 
-0.019154 -0.002994 0.986510 
0.019072 0.003103 -0.986619 
1.201969 0.000549 -0.012899 
-1.201937 -0.000350 0.012909 
0.000716 1.210938 -0.002017 
-0.000659 -1.210778 0.002188 
-0.012793 -0.002020 1.187304 
0.012860 0.002095 -1.187235 
0.983110 0.197417 -0.019575 
0.926634 0.386880 -0.019058 
0.834785 0.561754 -0.017662 
0.710755 0.715055 -0.015874 
0.559088 0.841097 -0.012891 
0.385498 0.934750 -0.009968 
0.196997 0.992257 -0.006659 
-0.195026 0.991220 0.000504 
-0.383659 0.933236 0.004336 
-0.556959 0.839354 0.008249 
-0.708930 0.713160 0.011653 
-0.833707 0.559810 0.014198 
-0.925673 0.385054 0.016785 
-0.982695 0.195909 0.018312 
-0.983121 -0.197260 0.019413 
-0.926381 -0.386729 0.018899 
-0.834292 -0.561532 0.017534 
-0.710291 -0.714923 0.015736 
-0.558845 -0.841105 0.013060 
-0.385380 -0.934771 0.010235 
-0.196983 -0.992186 0.006613 
0.195300 -0.991534 -0.000516 
0.383707 -0.933629 -0.004284 
0.557045 -0.839500 -0.008455 
0.708895 -0.713190 -0.011604 
0.833678 -0.559860 -0.014216 
0.925599 -0.385015 -0.016826 
0.982706 -0.195849 -0.018362 
-0.018884 -0.198817 0.968978 
-0.018038 -0.387472 0.914570 
-0.016279 -0.562030 0.825244 
-0.014090 -0.715393 0.703931 
-0.011458 -0.841790 0.554508 
-0.007987 -0.935389 0.383586 
-0.004449 -0.992875 0.197276 
0.002885 -0.990617 -0.191273 
0.006511 -0.931180 -0.377301 
0.009997 -0.835972 -0.548023 
0.012895 -0.708945 -0.697267 
0.015285 -0.555342 -0.819417 
0.017322 -0.381116 -0.910183 
0.018462 -0.192632 -0.966676 
0.018859 0.198767 -0.969021 
0.017835 0.387451 -0.914922 
0.016421 0.562074 -0.825290 
0.014174 0.715354 -0.703770 
0.011424 0.841697 -0.554405 
0.008119 0.935366 -0.383468 
0.004617 0.992860 -0.197213 
-0.002725 0.990626 0.191330 
-0.006585 0.931287 0.377044 
-0.010004 0.835917 0.548087 
-0.013000 0.709026 0.697358 
-0.015424 0.555396 0.819304 
-0.017381 0.381222 0.910403 
-0.018587 0.192743 0.966818 
0.975250 0.000189 0.173949 
0.911269 -0.000474 0.358617 
0.813190 -0.000920 0.528988 
0.685975 -0.001400 0.678706 
0.533546 -0.002112 0.803222 
0.361189 -0.002460 0.898480 
0.174956 -0.002713 0.960736 
-0.214002 -0.002983 0.974953 
-0.402221 -0.003268 0.925795 
-0.575623 -0.002859 0.839986 
-0.727378 -0.002668 0.719645 
-0.850514 -0.002503 0.571157 
-0.938893 -0.001745 0.399759 
-0.990127 -0.001306 0.213182 
-0.975224 -0.000149 -0.174099 
-0.911426 0.000461 -0.358792 
-0.813536 0.000864 -0.529067 
-0.686212 0.001392 -0.678807 
-0.533710 0.001950 -0.802927 
-0.361178 0.002404 -0.898440 
-0.175003 0.002766 -0.960760 
0.213840 0.003160 -0.974951 
0.402138 0.003266 -0.925730 
0.575420 0.002973 -0.839882 
0.727232 0.002725 -0.719659 
0.850533 0.002473 -0.571124 
0.938911 0.001878 -0.399865 
0.989942 0.001397 -0.213223 
1.187439 0.189237 -0.012941 
1.143979 0.373435 -0.012881 
1.072670 0.548568 -0.012260 
0.974572 0.710599 -0.011711 
0.852432 0.855555 -0.010685 
0.709285 0.979159 -0.008867 
0.548253 1.078941 -0.007533 
0.373483 1.152019 -0.005746 
0.189352 1.196276 -0.004217 
-0.187970 1.195575 0.000175 
-0.372131 1.150480 0.002480 
-0.546703 1.077402 0.003923 
-0.707867 0.977336 0.005585 
-0.850793 0.853797 0.007364 
-0.972823 0.709399 0.009449 
-1.071472 0.547280 0.010460 
-1.142989 0.372425 0.011436 
-1.186937 0.188349 0.012277 
-1.187361 -0.189245 0.013000 
-1.143732 -0.373338 0.012852 
-1.072276 -0.548439 0.012286 
-0.974187 -0.710360 0.011620 
-0.852416 -0.855383 0.010359 
-0.709269 -0.978996 0.008825 
-0.548150 -1.078958 0.007446 
-0.373421 -1.151963 0.005778 
-0.189338 -1.196331 0.004234 
0.188130 -1.195651 -0.000134 
0.372270 -1.150801 -0.002412 
0.546917 -1.077550 -0.003984 
0.707997 -0.977456 -0.005707 
0.850886 -0.853718 -0.007450 
0.972855 -0.709347 -0.009632 
1.071470 -0.547232 -0.010519 
1.142970 -0.372370 -0.011447 
1.186952 -0.188244 -0.012335 
0.001673 -1.194795 -0.185358 
0.003401 -1.148760 -0.368135 
0.005366 -1.074090 -0.540916 
0.006795 -0.973102 -0.699564 
0.008676 -0.848582 -0.840907 
0.010359 -0.703570 -0.960896 
0.011093 -0.542359 -1.057189 
0.011866 -0.368240 -1.127942 
0.012531 -0.185429 -1.171750 
0.012655 0.189684 -1.173772 
0.012318 0.372845 -1.132167 
0.011696 0.547850 -1.062584 
0.010788 0.709919 -0.966945 
0.009496 0.854862 -0.846650 
0.007669 0.978854 -0.705785 
0.006260 1.079197 -0.546204 
0.004855 1.152719 -0.372490 
0.002586 1.196771 -0.189792 
-0.001763 1.194628 0.185263 
-0.003372 1.148903 0.367987 
-0.004968 1.073813 0.541374 
-0.006760 0.973031 0.699563 
-0.008677 0.848662 0.840869 
-0.010544 0.703588 0.961143 
-0.011185 0.542400 1.057252 
-0.011963 0.368258 1.128115 
-0.012585 0.185365 1.171803 
-0.012786 -0.189574 1.173797 
-0.012320 -0.372952 1.131942 
-0.011682 -0.547721 1.062546 
-0.010829 -0.709837 0.967149 
-0.009439 -0.854831 0.846803 
-0.007624 -0.978917 0.705907 
-0.006233 -1.079280 0.546282 
-0.004818 -1.152740 0.372599 
-0.002533 -1.196819 0.190003 
-1.193721 -0.000842 0.200034 
-1.154977 -0.000928 0.384033 
-1.086569 -0.001414 0.558999 
-0.989393 -0.001398 0.720010 
-0.866442 -0.001987 0.861699 
-0.722369 -0.001992 0.981291 
-0.559752 -0.002031 1.076040 
-0.383997 -0.001968 1.142013 
-0.199974 -0.002101 1.179310 
0.173462 -0.001812 1.166193 
0.354404 -0.001792 1.117391 
0.525631 -0.001569 1.042146 
0.684207 -0.001258 0.943274 
0.827488 -0.001045 0.822815 
0.950952 -0.000863 0.682005 
1.052286 -0.000366 0.524583 
1.129805 -0.000015 0.353964 
1.180470 0.000233 0.173709 
1.193664 0.000906 -0.200235 
1.155085 0.001187 -0.383968 
1.086670 0.001437 -0.559001 
0.989263 0.001510 -0.719944 
0.866481 0.001938 -0.861608 
0.722406 0.001871 -0.981231 
0.559706 0.002001 -1.075930 
0.383818 0.002041 -1.142054 
0.199978 0.002050 -1.179201 
-0.173577 0.001777 -1.166311 
-0.354595 0.001752 -1.117388 
-0.525622 0.001649 -1.041974 
-0.684289 0.001563 -0.943625 
-0.827600 0.001034 -0.822965 
-0.951174 0.000821 -0.682181 
-1.052582 0.000313 -0.524751 
-1.129935 -0.000012 -0.354031 
-1.180467 -0.000203 -0.173750 
0.833009 -0.400562 -0.428390 
0.427378 -0.800546 -0.445878 
0.411581 -0.378352 -0.839360 
0.905674 -0.300826 -0.352173 
0.303401 -0.903085 -0.335652 
0.699992 -0.338248 -0.660043 
0.571541 -0.635988 -0.546112 
0.875428 -0.485012 -0.123145 
0.195062 -0.621781 -0.758198 
0.632526 -0.171090 -0.780234 
0.890195 -0.156687 -0.476193 
0.216270 -0.858959 -0.478347 
0.965316 -0.138757 -0.283182 
0.820681 -0.295198 -0.531385 
0.694569 -0.650319 -0.353745 
0.469831 -0.871477 -0.206964 
0.635503 -0.764956 -0.184190 
0.543287 -0.480453 -0.708690 
0.816425 -0.142254 -0.600492 
0.567495 -0.760879 -0.355074 
0.991969 -0.123020 -0.131586 
0.778568 -0.622982 -0.164342 
0.157809 -0.957756 -0.275764 
0.945813 -0.308910 -0.175526 
0.751440 -0.474629 -0.498318 
0.272151 -0.960961 -0.153493 
0.568454 -0.301696 -0.785993 
0.346932 -0.709665 -0.625764 
0.845523 -0.473187 -0.303396 
0.517467 -0.180713 -0.853104 
0.159751 -0.762076 -0.630400 
0.211347 -0.481286 -0.848895 
0.194527 -0.317026 -0.924213 
0.366661 -0.559076 -0.753170 
0.654736 -0.485566 -0.609219 
0.126396 -0.994771 -0.123858 
0.462772 -0.605824 -0.664469 
0.347832 -0.214618 -0.918063 
0.223506 -0.130620 -0.963852 
0.519150 0.594087 -0.649005 
0.516603 0.797527 -0.370696 
0.825545 0.380691 -0.471537 
0.418810 0.477721 -0.793868 
0.359969 0.899430 -0.311049 
0.309995 0.319458 -0.904873 
0.189091 0.167819 -0.966026 
0.781166 0.222449 -0.625753 
0.689328 0.548356 -0.521975 
0.510518 0.859141 -0.182480 
0.622225 0.181792 -0.789493 
0.194537 0.890752 -0.445843 
0.186430 0.482285 -0.862014 
0.571047 0.696628 -0.483664 
0.158783 0.967560 -0.260994 
0.409905 0.144156 -0.913281 
0.141991 0.328173 -0.932680 
0.638542 0.714924 -0.349917 
0.131159 0.634022 -0.770563 
0.182104 0.766186 -0.635588 
0.318149 0.635334 -0.724579 
0.865875 0.493744 -0.188668 
0.628679 0.402698 -0.700295 
0.390303 0.779599 -0.527962 
0.774953 0.564073 -0.352617 
0.129399 0.998215 -0.115917 
0.295019 0.959279 -0.147904 
0.715540 0.700434 -0.163911 
0.959347 0.150660 -0.303779 
0.493127 0.312756 -0.833955 
0.868872 0.418012 -0.333562 
0.894005 0.175525 -0.466655 
0.948768 0.297725 -0.195454 
0.910423 0.289906 -0.358653 
0.990150 0.131197 -0.150578 
0.743932 0.393187 -0.585448 
0.443074 0.456975 0.734196 
0.445923 0.808971 0.367565 
0.820906 0.412164 0.349302 
0.313043 0.310720 0.865312 
0.300170 0.912228 0.285197 
0.898845 0.339179 0.233625 
0.956992 0.169409 0.188278 
0.538994 0.632292 0.522974 
0.092068 0.479295 0.853722 
0.733413 0.164897 0.609117 
0.421202 0.157338 0.855487 
0.427726 0.892338 0.170741 
0.861902 0.475990 0.147956 
0.241463 0.138756 0.931886 
0.253595 0.966328 0.133759 
0.936412 0.324689 0.103065 
0.591810 0.157162 0.744610 
0.495219 0.288633 0.778320 
0.303566 0.627838 0.690297 
0.775065 0.626298 0.096389 
0.667374 0.729151 0.153048 
0.572584 0.492816 0.614829 
0.181302 0.754606 0.614473 
0.753006 0.580198 0.277949 
0.621474 0.687568 0.347593 
0.378220 0.720326 0.556767 
0.549489 0.809436 0.207422 
0.109953 0.996422 0.118453 
0.092969 0.120717 0.968059 
0.450875 0.593423 0.633365 
0.136234 0.612393 0.759898 
0.689769 0.506283 0.475300 
0.623929 0.347842 0.654460 
0.139143 0.306953 0.918534 
0.162142 0.957180 0.260795 
0.767754 0.318581 0.506028 
0.822803 0.139499 0.497553 
0.208606 0.869431 0.441750 
0.873949 0.233255 0.374954 
0.239156 0.474351 0.820304 
0.504787 -0.794183 0.331030 
0.310386 -0.375030 0.848042 
0.320517 -0.882249 0.352895 
0.131983 -0.469652 0.859627 
0.491788 -0.160036 0.817267 
0.423653 -0.893171 0.180821 
0.591978 -0.548804 0.557605 
0.246519 -0.177177 0.926947 
0.224541 -0.967587 0.176927 
0.909084 -0.376081 0.144534 
0.754521 -0.402158 0.475341 
0.735630 -0.664469 0.127282 
0.853516 -0.189536 0.434200 
0.948016 -0.182391 0.213385 
0.486872 -0.323749 0.775900 
0.555757 -0.680393 0.455481 
0.608314 -0.781061 0.151549 
0.700440 -0.641436 0.288352 
[...]
POINT_DATA 1108
SCALARS u float 1
LOOKUP_TABLE default
0.019589
0.019406
0.011721
0.011986
0.023618
0.023504
0.013059
0.013058
0.011145
0.011017
0.018137
0.018241
0.019850
0.019708
0.019005
0.018124
0.016469
0.015015
0.013401
0.010447
0.010358
0.011496
0.013257
0.014985
0.017046
0.018430
0.019673
0.019488
0.018733
0.017856
0.016557
0.015188
0.013315
0.010763
0.010698
0.011753
0.013223
0.015012
0.017073
0.018478
0.022581
0.020856
0.018588
0.016652
0.015457
0.014038
0.013066
0.010934
0.011165
0.013311
0.016324
0.019466
0.022138
0.023366
0.022529
0.020520
0.018712
0.016735
0.015377
0.014088
0.013101
0.010881
0.011403
0.013261
0.016363
0.019645
0.022042
0.023369
0.021854
0.027175
0.032274
0.035427
0.035881
0.033364
0.028543
0.020014
0.019901
0.021974
0.023985
0.024737
0.022804
0.020403
0.021716
0.026946
0.032012
0.035205
0.036005
0.033398
0.028499
0.019889
0.019813
0.021763
0.023875
0.024727
0.022906
0.020361
0.013216
0.013420
0.013288
0.013374
0.013371
0.012795
0.012786
0.012478
0.011939
0.010353
0.009629
0.009284
0.008945
0.009334
0.010476
0.010988
0.011676
0.012412
0.013262
0.013326
0.013179
0.013097
0.013016
0.012655
0.012720
0.012431
0.011994
0.010434
0.009940
0.009486
0.009146
0.009381
0.010628
0.011033
0.011676
0.012466
0.009998
0.008655
0.008223
0.009206
0.011548
0.014455
0.016535
0.018029
0.018544
0.017182
0.015449
0.013786
0.012343
0.011568
0.011115
0.011873
0.012549
0.012011
0.009876
0.008814
0.007586
0.009165
0.011574
0.014419
0.016545
0.017963
0.018550
0.017249
0.015598
0.013764
0.012286
0.011481
0.011135
0.011938
0.012570
0.012084
0.014983
0.019063
0.022480
0.023707
0.022323
0.020087
0.016574
0.013343
0.013768
0.023851
0.029031
0.033194
0.034743
0.033240
0.030661
0.026358
0.020384
0.014799
0.015120
0.019110
0.022560
0.023572
0.022297
0.020076
0.016483
0.013180
0.013810
0.023685
0.028924
0.033343
0.034428
0.033053
0.030382
0.026039
0.020257
0.014762
0.019969
0.012633
0.017480
0.020027
0.011079
0.020861
0.016055
0.016102
0.015471
0.021500
0.022694
0.011778
0.020560
0.021802
0.016214
0.011834
0.013563
0.017524
0.023659
0.013992
0.019033
0.015104
0.010705
0.018137
0.019545
0.010499
0.019731
0.013635
0.017991
0.019780
0.013599
0.017205
0.018872
0.015369
0.018874
0.010759
0.015370
0.018460
0.019456
0.022795
0.020610
0.024808
0.021277
0.018169
0.019899
0.020102
0.025326
0.024075
0.018249
0.023532
0.017043
0.018866
0.022745
0.015363
0.020535
0.019841
0.021697
0.017909
0.017698
0.019905
0.020968
0.024470
0.020410
0.023143
0.013763
0.015621
0.019780
0.022172
0.022302
0.023040
0.024683
0.020985
0.023384
0.020210
0.025107
0.030683
0.017279
0.025280
0.031177
0.013408
0.022932
0.022682
0.024271
0.023296
0.033841
0.034430
0.014461
0.020402
0.030687
0.012830
0.020652
0.036115
0.034215
0.024039
0.018510
0.017671
0.029244
0.018506
0.021200
0.020561
0.021176
0.016164
0.011496
0.026566
0.026357
0.021468
0.026722
0.032858
0.026901
0.011806
0.030445
0.031477
0.014411
0.027347
0.026963
0.014233
0.027365
0.012500
0.022020
0.033919
0.011289
0.024273
0.029132
0.011196
0.018729
0.026527
0.014705
0.028345
0.022186
0.030918
0.018568
0.013040
0.017646
0.025769
0.024681
0.015398
0.013059
0.015958
0.016719
0.020789
0.032786
0.013677
0.025405
0.022161
0.020461
0.029891
0.018979
0.018619
0.022677
0.034302
0.031598
0.023330
0.011515
0.022951
0.020747
0.024520
0.021559
0.018383
0.019873
0.020009
0.025191
0.024215
0.018445
0.023840
0.017050
0.018985
0.022397
0.015217
0.020620
0.019835
0.021679
0.017812
0.017678
0.019932
0.020571
0.024588
0.020453
0.022995
0.013756
0.015715
0.019611
0.021986
0.022298
0.023083
0.024575
0.020706
0.023225
0.020143
0.025266
0.030116
0.017085
0.024829
0.031211
0.013530
0.022763
0.022561
0.024338
0.023197
0.033808
0.034390
0.014536
0.020216
0.030567
0.012762
0.020473
0.035733
0.034140
0.023698
0.018227
0.017736
0.029113
0.018034
0.021095
0.020528
0.021093
0.016241
0.011620
0.026585
0.025778
0.021427
0.026555
0.032565
0.026987
0.012017
0.030164
0.031149
0.014502
0.027309
0.026951
0.014120
0.027301
0.012458
0.022054
0.034116
0.011149
0.024195
0.029127
0.011044
0.018698
0.026355
0.014671
0.028198
0.022051
0.030777
0.018622
0.012815
0.017538
0.025606
0.024532
0.015307
0.013089
0.015983
0.016738
0.020744
0.032686
0.013698
0.025345
0.021991
0.020209
0.029752
0.018797
0.018578
0.022540
0.034228
0.031667
0.023116
0.011369
0.019977
0.012629
0.017608
0.020118
0.011133
0.020868
0.016039
0.016131
0.015497
0.021604
0.022737
0.011413
0.020433
0.021793
0.016159
0.011662
0.013196
0.017557
0.023685
0.013894
0.018952
0.015041
0.010709
0.018174
0.019535
0.010337
0.019835
0.013814
0.017959
0.019921
0.013681
0.017304
0.018948
0.015514
0.018857
0.010626
0.015515
0.018537
0.019506
0.014525
0.022097
0.023307
0.016582
0.008592
0.016383
0.009166
0.024734
0.013180
0.010280
0.022328
0.030101
0.012182
0.016263
0.027691
0.009872
0.032944
0.015418
0.009883
0.014881
0.011414
0.008221
0.021514
0.010673
0.019435
0.018801
0.012962
0.009121
0.016205
0.010926
0.024622
0.026567
0.017921
0.017425
0.022844
0.009736
0.020495
0.031809
0.010584
0.030277
0.019741
0.033539
0.012274
0.026023
0.010028
0.021607
0.008923
0.010982
0.008483
0.014356
0.008317
0.020089
0.013922
0.011064
0.013353
0.013138
0.025440
0.028677
0.009344
0.030276
0.018594
0.027129
0.021473
0.021701
0.015953
0.016555
0.019854
0.015311
0.018353
0.013649
0.013532
0.014807
0.013653
0.024128
0.016100
0.014850
0.014545
0.024147
0.019436
0.012827
0.020647
0.019320
0.015906
0.016441
0.014470
0.021108
0.013232
0.022491
0.015028
0.016033
0.013540
0.016891
0.019284
0.018385
0.022485
0.023608
0.020986
0.022726
0.019037
0.013049
0.023757
0.015580
0.021570
0.013016
0.022568
0.017456
0.024373
0.017128
0.022508
0.018429
0.016055
0.017565
0.019343
0.021006
0.023444
0.014069
0.012165
0.019510
0.024492
0.017649
0.015503
0.015358
0.013674
0.013047
0.029190
0.018854
0.010001
0.029158
0.020661
0.026775
0.017559
0.009256
0.026074
0.016738
0.010143
0.013411
0.018359
0.013580
0.013327
0.020128
0.011009
0.010042
0.027834
0.032689
0.034314
0.028910
0.014041
0.022202
0.008974
0.024398
0.030849
0.022435
0.014039
0.022580
0.013398
0.017820
0.015817
0.020338
0.022379
0.022043
0.029068
0.012113
0.015736
0.011737
0.011917
0.012744
0.011599
0.023732
0.016394
0.026002
0.017350
0.031992
0.034251
0.032063
0.025288
0.023870
0.027619
0.013754
0.021839
0.023778
0.018842
0.010192
0.032610
0.010746
0.008417
0.010836
0.018396
0.013902
0.010436
0.012613
0.018060
0.012391
0.016192
0.013204
0.015921
0.010195
0.013701
0.009842
0.012356
0.011755
0.013066
0.008248
0.010787
0.020712
0.016700
0.017580
0.022204
0.013570
0.013169
0.010382
0.016067
0.013483
0.019666
0.014913
0.013459
0.011762
0.008979
0.009891
0.011816
0.013904
0.016123
0.013697
0.018484
0.013271
0.010911
0.011077
0.009774
0.011610
0.009042
0.010964
0.011043
0.015575
0.011560
0.016241
0.020184
0.022277
0.014849
0.020327
0.015029
0.018253
0.013426
0.015435
0.016155
0.012324
0.009893
0.020673
0.009762
0.010037
0.016565
0.025896
0.028563
0.018113
0.009214
0.017499
0.009482
0.013915
0.010933
0.016137
0.031909
0.033394
0.020602
0.010744
0.028315
0.019655
0.034224
0.012197
0.016052
0.013322
0.010924
0.008681
0.022136
0.031770
0.021818
0.014204
0.010363
0.009667
0.016664
0.028213
0.023789
0.027548
0.030493
0.022580
0.021373
0.026216
0.012397
0.022085
0.012242
0.032363
0.031956
0.024233
0.034323
0.015658
0.027524
0.013230
0.022942
0.009454
0.012143
0.012019
0.016219
0.010190
0.017354
0.022134
0.010828
0.013719
0.027586
0.017180
0.027843
0.011522
0.024120
0.021588
0.018358
0.013830
0.010372
0.012495
0.018031
0.012340
0.016199
0.010145
0.013169
0.015995
0.010251
0.010040
0.013717
0.009511
0.011757
0.013161
0.008185
0.010873
0.020704
0.016582
0.017441
0.022176
0.013547
0.013168
0.009024
0.016053
0.013363
0.019721
0.014906
0.013471
0.012138
0.011476
0.014185
0.016187
0.013522
0.018478
0.013108
0.010952
0.011338
0.009577
0.012919
0.008952
0.011142
0.010898
0.015584
0.011456
0.016300
0.020105
0.022200
0.014686
0.020303
0.014929
0.018263
0.013477
0.015428
0.012097
0.016238
0.011364
0.020593
0.009021
0.010239
0.010087
0.014496
0.022096
0.025182
0.016684
0.008642
0.016467
0.009278
0.013229
0.010431
0.030270
0.012192
0.031337
0.016225
0.027856
0.009865
0.032665
0.015399
0.009970
0.014991
0.011460
0.008322
0.021705
0.010690
0.029877
0.018777
0.012984
0.009238
0.016281
0.011022
0.024308
0.019830
0.026747
0.027450
0.018102
0.017428
0.023071
0.009710
0.020685
0.031961
0.010550
0.029042
0.019753
0.033578
0.012203
0.026203
0.010006
0.021813
0.008896
0.011097
0.008613
0.014406
0.008384
0.020236
0.013857
0.011165
0.013425
0.025790
0.013173
0.025500
0.009416
0.022159
0.020686
0.019398
0.022882
0.021984
0.016605
0.014258
0.015299
0.013328
0.018988
0.013470
0.014116
0.015639
0.019108
0.023700
0.024216
0.016162
0.019807
0.015464
0.023894
0.016434
0.017799
0.014339
0.013012
0.015035
0.014697
0.021907
0.022381
0.014534
0.013066
0.013610
0.013187
0.023080
0.022108
0.024431
0.023438
0.021931
0.018275
0.019134
0.015356
0.022213
0.019511
0.023888
0.015512
0.024196
0.018896
0.020837
0.017660
0.016691
0.015804
0.013197
0.016552
0.014109
0.020982
0.021324
0.014936
0.012224
0.022454
0.020551
0.019414
0.012980
0.015818
0.019384
0.014694
0.017095
0.017520
0.027308
0.019258
0.021029
0.024045
0.023521
0.008719
0.004526
0.017454
0.016308
0.019796
0.017541
0.028795
0.016712
0.017995
0.019334
0.029296
0.022298
0.004039
0.011292
0.013988
0.013446
0.016922
0.027174
0.023092
0.025869
0.022471
0.024054
0.019635
0.029121
0.028042
0.025307
0.024153
0.015686
0.029713
0.029155
0.011293
0.023037
0.010261
0.022316
0.033450
0.018469
0.023742
0.019485
0.031962
0.013532
0.013658
0.028869
0.014712
0.017279
0.026730
0.032202
0.022310
0.021676
0.019750
0.021424
0.015646
0.021827
0.025566
0.021840
0.022037
0.019046
0.020509
0.021079
0.022038
0.027788
0.032907
0.016977
0.023132
0.027368
0.027843
0.027897
0.031076
0.018844
0.022638
0.025622
0.030878
0.027712
0.026429
0.024308
0.028226
0.026644
0.032727
0.029207
0.023626
0.012350
0.013595
0.010722
0.017568
0.012580
0.012228
0.021292
0.024007
0.020287
0.020948
0.022396
0.023037
0.011014
0.008443
0.021850
0.006582
