# vtk DataFile Version 2.0
Unstructured Grid Example
ASCII
DATASET UNSTRUCTURED_GRID
POINTS 1108 float
0.998372 -0.000623 0.015368 
-0.998371 0.000605 -0.015223 
-0.000798 0.991084 0.002347 
0.000689 -0.990883 -0.002439 
0.015123 0.002364 1.010651 
-0.015058 -0.002450 -1.010565 
1.198445 -0.000433 0.010184 
-1.198470 0.000276 -0.010192 
-0.000565 1.191364 0.001592 
0.000520 -1.191490 -0.001727 
0.010101 0.001595 1.210024 
-0.010154 -0.001654 -1.210079 
0.978950 0.193253 0.015456 
0.921704 0.379370 0.015047 
0.828852 0.550688 0.013945 
0.704226 0.700831 0.012533 
0.552793 0.823868 0.010178 
0.380461 0.915297 0.007870 
0.193585 0.971728 0.005258 
-0.195141 0.972547 -0.000398 
-0.381913 0.916492 -0.003423 
-0.554473 0.825244 -0.006513 
-0.705668 0.702327 -0.009200 
-0.829703 0.552223 -0.011210 
-0.922463 0.380812 -0.013252 
-0.979277 0.194444 -0.014458 
-0.978941 -0.193377 -0.015327 
-0.921904 -0.379490 -0.014922 
-0.829241 -0.550863 -0.013843 
-0.704593 -0.700935 -0.012424 
-0.552985 -0.823862 -0.010311 
-0.380554 -0.915280 -0.008081 
-0.193596 -0.971784 -0.005221 
0.194924 -0.972299 0.000407 
0.381875 -0.916182 0.003382 
0.554406 -0.825130 0.006675 
0.705695 -0.702304 0.009162 
0.829726 -0.552183 0.011224 
0.922522 -0.380843 0.013285 
0.979269 -0.194492 0.014498 
0.014910 -0.192148 0.990107 
0.014242 -0.378903 0.931230 
0.012853 -0.550470 0.836385 
0.011124 -0.700564 0.709614 
0.009047 -0.823321 0.556409 
0.006306 -0.914792 0.381971 
0.003513 -0.971240 0.193365 
-0.002278 -0.973023 -0.198105 
-0.005141 -0.918116 -0.386933 
-0.007893 -0.827915 -0.561529 
-0.010181 -0.705655 -0.714875 
-0.012068 -0.555750 -0.840985 
-0.013676 -0.383921 -0.934693 
-0.014577 -0.197031 -0.991925 
-0.014890 0.192187 -0.990073 
-0.014082 0.378919 -0.930952 
-0.012965 0.550435 -0.836348 
-0.011191 0.700595 -0.709741 
-0.009020 0.823395 -0.556490 
-0.006411 0.914810 -0.382064 
-0.003646 0.971251 -0.193414 
0.002151 0.973016 0.198059 
0.005199 0.918031 0.387136 
0.007898 0.827958 0.561479 
0.010264 0.705591 0.714804 
0.012178 0.555708 0.841075 
0.013723 0.383838 0.934520 
0.014675 0.196944 0.991813 
0.985156 -0.000149 0.211782 
0.933836 0.000374 0.401685 
0.845902 0.000727 0.576558 
0.723791 0.001105 0.729530 
0.572959 0.001667 0.853772 
0.399654 0.001942 0.943933 
0.210987 0.002142 0.996615 
-0.180159 0.002355 0.985390 
-0.367258 0.002580 0.922367 
-0.539737 0.002257 0.824745 
-0.691102 0.002107 0.697207 
-0.816433 0.001976 0.543264 
-0.912026 0.001378 0.369202 
-0.973409 0.001031 0.180806 
-0.985176 0.000118 -0.211664 
-0.933712 -0.000364 -0.401546 
-0.845629 -0.000682 -0.576495 
-0.723604 -0.001099 -0.729450 
-0.572830 -0.001540 -0.854005 
-0.399663 -0.001898 -0.943965 
-0.210950 -0.002184 -0.996596 
0.180287 -0.002495 -0.985392 
0.367323 -0.002579 -0.922418 
0.539898 -0.002347 -0.824828 
0.691217 -0.002151 -0.697196 
0.816419 -0.001953 -0.543290 
0.912012 -0.001483 -0.369118 
0.973556 -0.001103 -0.180774 
1.183479 0.186525 0.010218 
1.139127 0.368756 0.010170 
1.066475 0.541805 0.009680 
0.967858 0.701192 0.009246 
0.845446 0.842980 0.008436 
0.702229 0.964237 0.007001 
0.542053 1.061523 0.005948 
0.368718 1.132779 0.004537 
0.186434 1.176501 0.003329 
-0.187525 1.177055 -0.000139 
-0.369786 1.133995 -0.001958 
-0.543277 1.062738 -0.003098 
-0.703349 0.965676 -0.004410 
-0.846740 0.844368 -0.005814 
-0.969239 0.702139 -0.007460 
-1.067420 0.542822 -0.008259 
-1.139909 0.369553 -0.009030 
-1.183875 0.187226 -0.009694 
-1.183540 -0.186518 -0.010264 
-1.139322 -0.368832 -0.010147 
-1.066785 -0.541907 -0.009701 
-0.968162 -0.701381 -0.009175 
-0.845458 -0.843116 -0.008179 
-0.702242 -0.964366 -0.006968 
-0.542135 -1.061510 -0.005879 
-0.368767 -1.132823 -0.004562 
-0.186445 -1.176458 -0.003343 
0.187399 -1.176995 0.000106 
0.369676 -1.133741 0.001905 
0.543108 -1.062621 0.003146 
0.703247 -0.965581 0.004506 
0.846667 -0.844431 0.005882 
0.969214 -0.702181 0.007605 
1.067422 -0.542859 0.008305 
1.139924 -0.369597 0.009038 
1.183863 -0.187309 0.009739 
-0.001321 -1.177671 -0.189588 
-0.002685 -1.135353 -0.372941 
-0.004237 -1.065353 -0.547846 
-0.005365 -0.969019 -0.709904 
-0.006850 -0.848486 -0.854545 
-0.008179 -0.706742 -0.978656 
-0.008758 -0.546707 -1.078697 
-0.009369 -0.372858 -1.151789 
-0.009893 -0.189531 -1.195866 
-0.009992 0.186171 -1.194270 
-0.009726 0.369222 -1.148453 
-0.009235 0.542371 -1.074437 
-0.008517 0.701729 -0.973880 
-0.007498 0.843528 -0.850011 
-0.006055 0.964478 -0.704993 
-0.004943 1.061321 -0.543671 
-0.003833 1.132227 -0.369502 
-0.002041 1.176111 -0.186086 
0.001392 1.177803 0.189662 
0.002662 1.135240 0.373058 
0.003923 1.065572 0.547485 
0.005338 0.969075 0.709906 
0.006851 0.848423 0.854575 
0.008325 0.706727 0.978461 
0.008831 0.546675 1.078647 
0.009446 0.372843 1.151652 
0.009936 0.189582 1.195824 
0.010095 -0.186259 1.194250 
0.009727 -0.369137 1.148631 
0.009223 -0.542473 1.074468 
0.008550 -0.701794 0.973719 
0.007453 -0.843552 0.849891 
0.006019 -0.964428 0.704896 
0.004921 -1.061256 0.543609 
0.003804 -1.132210 0.369416 
0.002000 -1.176073 0.185920 
-1.178519 0.000665 0.178000 
-1.130444 0.000733 0.360388 
-1.055501 0.001116 0.533569 
-0.956156 0.001104 0.693762 
-0.834384 0.001569 0.838129 
-0.691899 0.001573 0.962554 
-0.532975 0.001603 1.063814 
-0.360417 0.001554 1.140679 
-0.178047 0.001659 1.189897 
0.198980 0.001430 1.200253 
0.383782 0.001415 1.160120 
0.559914 0.001239 1.090574 
0.722030 0.000993 0.992569 
0.865140 0.000825 0.868829 
0.986507 0.000681 0.723768 
1.082568 0.000289 0.560742 
1.150318 0.000012 0.384129 
1.188981 -0.000184 0.198785 
1.178564 -0.000716 -0.177841 
1.130358 -0.000937 -0.360440 
1.055421 -0.001135 -0.533567 
0.956259 -0.001192 -0.693814 
0.834353 -0.001530 -0.838201 
0.691870 -0.001477 -0.962601 
0.533011 -0.001580 -1.063901 
0.360558 -0.001611 -1.140647 
0.178044 -0.001618 -1.189983 
-0.198889 -0.001403 -1.200160 
-0.383631 -0.001383 -1.160122 
-0.559922 -0.001302 -1.090710 
-0.721965 -0.001234 -0.992292 
-0.865051 -0.000816 -0.868711 
-0.986332 -0.000648 -0.723629 
-1.082335 -0.000247 -0.560609 
-1.150216 0.000010 -0.384077 
-1.188984 0.000161 -0.198753 
0.807643 -0.393735 -0.404163 
0.409364 -0.787904 -0.440706 
0.380444 -0.376762 -0.836818 
0.882981 -0.296645 -0.324751 
0.291108 -0.887620 -0.333992 
0.668093 -0.334130 -0.641091 
0.547086 -0.625886 -0.534913 
0.865839 -0.477526 -0.097024 
0.169568 -0.617852 -0.768256 
0.597580 -0.171801 -0.764156 
0.860758 -0.156124 -0.448219 
0.199426 -0.846913 -0.482270 
0.945007 -0.138207 -0.252507 
0.790721 -0.290958 -0.506757 
0.675055 -0.638684 -0.335697 
0.460001 -0.855172 -0.197690 
0.624231 -0.751251 -0.167629 
0.514032 -0.474758 -0.698939 
0.782364 -0.142377 -0.575344 
0.549936 -0.747354 -0.343423 
0.981121 -0.122733 -0.099300 
0.767022 -0.612316 -0.142354 
0.148900 -0.941120 -0.279065 
0.932586 -0.304904 -0.146160 
0.724408 -0.466097 -0.477829 
0.266365 -0.943208 -0.151417 
0.535364 -0.299892 -0.773807 
0.324038 -0.701231 -0.625497 
0.825591 -0.465211 -0.279405 
0.483430 -0.182013 -0.843471 
0.138349 -0.754659 -0.639299 
0.182526 -0.480111 -0.859664 
0.163347 -0.318804 -0.937067 
0.339602 -0.554172 -0.752748 
0.625779 -0.477976 -0.593578 
0.123177 -0.975967 -0.126453 
0.437028 -0.598310 -0.658364 
0.314925 -0.216722 -0.920070 
0.190527 -0.134533 -0.974306 
0.488493 0.574570 -0.630479 
0.495510 0.774659 -0.350885 
0.795108 0.366548 -0.442478 
0.386351 0.461805 -0.781913 
0.343746 0.875761 -0.295761 
0.276223 0.308284 -0.903240 
0.155410 0.160334 -0.976208 
0.746199 0.211754 -0.598977 
0.659680 0.529712 -0.496882 
0.497221 0.837725 -0.161717 
0.586015 0.172032 -0.770337 
0.175499 0.868059 -0.438580 
0.155401 0.469278 -0.864814 
0.544808 0.674354 -0.461934 
0.146718 0.944228 -0.252878 
0.374586 0.135725 -0.907629 
0.109351 0.318551 -0.942815 
0.616541 0.694254 -0.325498 
0.103118 0.618635 -0.772582 
0.157366 0.746830 -0.631535 
0.288855 0.616858 -0.716250 
0.849740 0.480368 -0.157544 
0.594101 0.386915 -0.678553 
0.365969 0.756787 -0.513079 
0.750222 0.546508 -0.324420 
0.122860 0.976015 -0.107493 
0.285225 0.937020 -0.134118 
0.701724 0.682815 -0.136494 
0.937171 0.144184 -0.271522 
0.458074 0.299931 -0.819827 
0.844321 0.404369 -0.303377 
0.863042 0.166907 -0.436354 
0.932353 0.288975 -0.162831 
0.884767 0.279294 -0.327342 
0.977160 0.126471 -0.117158 
0.710882 0.377983 -0.559083 
0.475497 0.462304 0.778188 
0.458374 0.802144 0.395033 
0.840282 0.411835 0.390181 
0.348475 0.316572 0.908009 
0.307112 0.900133 0.304722 
0.911404 0.336883 0.272626 
0.967782 0.168007 0.227383 
0.561585 0.632734 0.560068 
0.121760 0.482249 0.882836 
0.768094 0.168118 0.658658 
0.459632 0.162671 0.903350 
0.430301 0.878364 0.192368 
0.867447 0.470379 0.183604 
0.277898 0.144039 0.972633 
0.254533 0.949036 0.148833 
0.940229 0.320447 0.139580 
0.630369 0.161848 0.796265 
0.532087 0.294423 0.826862 
0.329955 0.629927 0.724207 
0.775676 0.616927 0.128155 
0.670277 0.719256 0.182942 
0.601625 0.496477 0.658211 
0.202804 0.752457 0.639570 
0.765025 0.576224 0.313713 
0.635581 0.683498 0.381331 
0.399176 0.719268 0.588323 
0.554305 0.798920 0.233935 
0.110867 0.978063 0.127689 
0.127740 0.125809 1.000077 
0.477651 0.596142 0.672100 
0.162670 0.613610 0.787747 
0.713862 0.507642 0.516585 
0.657501 0.352357 0.702525 
0.172626 0.311617 0.952807 
0.168391 0.942426 0.274566 
0.797199 0.321164 0.551796 
0.853820 0.141710 0.544523 
0.222609 0.861256 0.461805 
0.896639 0.233781 0.418310 
0.270531 0.478957 0.856672 
0.517247 -0.783433 0.350470 
0.344626 -0.370885 0.882807 
0.332652 -0.867378 0.364383 
0.163352 -0.462298 0.882315 
0.530325 -0.157325 0.864084 
0.428863 -0.878109 0.193235 
0.618512 -0.545504 0.591837 
0.282629 -0.172757 0.964288 
0.230187 -0.948811 0.181049 
0.916038 -0.372647 0.177140 
0.780816 -0.400305 0.514821 
0.739728 -0.656427 0.152000 
0.880373 -0.188400 0.477218 
0.960503 -0.181215 0.251055 
0.522610 -0.321396 0.818073 
0.574892 -0.673919 0.481863 
0.612934 -0.769880 0.171503 
0.713617 -0.634712 0.316250 
[...]
POINT_DATA 1108
SCALARS u float 1
LOOKUP_TABLE default
0.015466
0.015322
0.009254
0.009463
0.018648
0.018557
0.010311
0.010310
0.008800
0.008699
0.014320
0.014402
0.015672
0.015560
0.015005
0.014309
0.013003
0.011855
0.010580
0.008248
0.008178
0.009076
0.010467
0.011831
0.013459
0.014551
0.015533
0.015387
0.014791
0.014098
0.013072
0.011991
0.010513
0.008498
0.008446
0.009280
0.010440
0.011853
0.013480
0.014589
0.017828
0.016467
0.014676
0.013147
0.012204
0.011084
0.010316
0.008633
0.008815
0.010509
0.012889
0.015369
0.017479
0.018448
0.017788
0.016201
0.014774
0.013213
0.012141
0.011123
0.010344
0.008591
0.009003
0.010470
0.012919
0.015510
0.017403
0.018450
0.017255
0.021456
0.025481
0.027971
0.028330
0.026343
0.022536
0.015802
0.015713
0.017349
0.018937
0.019531
0.018004
0.016109
0.017146
0.021275
0.025274
0.027796
0.028428
0.026369
0.022501
0.015703
0.015644
0.017183
0.018850
0.019523
0.018085
0.016076
0.010435
0.010596
0.010491
0.010559
0.010557
0.010102
0.010095
0.009852
0.009427
0.008174
0.007603
0.007330
0.007063
0.007370
0.008271
0.008676
0.009219
0.009800
0.010471
0.010521
0.010406
0.010341
0.010277
0.009991
0.010043
0.009815
0.009470
0.008238
0.007848
0.007490
0.007221
0.007406
0.008391
0.008711
0.009219
0.009842
0.007894
0.006833
0.006493
0.007269
0.009117
0.011413
0.013055
0.014235
0.014641
0.013566
0.012197
0.010884
0.009745
0.009133
0.008776
0.009375
0.009908
0.009483
0.007798
0.006959
0.005990
0.007236
0.009138
0.011384
0.013063
0.014183
0.014646
0.013619
0.012315
0.010867
0.009700
0.009064
0.008792
0.009426
0.009924
0.009541
0.011829
0.015051
0.017749
0.018718
0.017625
0.015859
0.013086
0.010535
0.010870
0.018831
0.022921
0.026208
0.027431
0.026244
0.024208
0.020811
0.016094
0.011684
0.011938
0.015088
0.017812
0.018611
0.017604
0.015851
0.013014
0.010406
0.010904
0.018700
0.022836
0.026326
0.027182
0.026097
0.023988
0.020559
0.015993
0.011655
0.015766
0.009974
0.013801
0.015812
0.008747
0.016471
0.012676
0.012713
0.012215
0.016975
0.017918
0.009299
0.016233
0.017213
0.012802
0.009343
0.010709
0.013836
0.018680
0.011047
0.015027
0.011925
0.008452
0.014320
0.015431
0.008289
0.015578
0.010765
0.014204
0.015617
0.010737
0.013584
0.014900
0.012134
0.014901
0.008494
0.012135
0.014575
0.015361
0.017997
0.016273
0.019587
0.016799
0.014345
0.015711
0.015872
0.019996
0.019009
0.014409
0.018579
0.013456
0.014895
0.017958
0.012130
0.016213
0.015665
0.017130
0.014140
0.013973
0.015716
0.016555
0.019320
0.016114
0.018272
0.010866
0.012333
0.015617
0.017505
0.017608
0.018191
0.019488
0.016569
0.018463
0.015956
0.019823
0.024226
0.013642
0.019960
0.024615
0.010586
0.018106
0.017908
0.019163
0.018393
0.026719
0.027183
0.011417
0.016108
0.024229
0.010130
0.016306
0.028514
0.027014
0.018980
0.014615
0.013952
0.023089
0.014612
0.016739
0.016234
0.016719
0.012762
0.009076
0.020975
0.020810
0.016950
0.021098
0.025943
0.021239
0.009322
0.024038
0.024853
0.011378
0.021591
0.021289
0.011237
0.021606
0.009869
0.017386
0.026780
0.008913
0.019164
0.023001
0.008839
0.014787
0.020944
0.011610
0.022380
0.017517
0.024411
0.014660
0.010295
0.013932
0.020345
0.019487
0.012157
0.010310
0.012599
0.013200
0.016414
0.025886
0.010799
0.020058
0.017497
0.016155
0.023600
0.014985
0.014700
0.017904
0.027082
0.024948
0.018420
0.009092
0.018121
0.016380
0.019359
0.017022
0.014514
0.015690
0.015798
0.019890
0.019119
0.014563
0.018822
0.013462
0.014989
0.017684
0.012014
0.016280
0.015660
0.017117
0.014063
0.013958
0.015737
0.016241
0.019413
0.016149
0.018155
0.010861
0.012408
0.015484
0.017359
0.017605
0.018225
0.019403
0.016348
0.018337
0.015904
0.019948
0.023778
0.013489
0.019604
0.024643
0.010682
0.017972
0.017813
0.019216
0.018315
0.026692
0.027152
0.011477
0.015961
0.024134
0.010076
0.016165
0.028213
0.026955
0.018710
0.014391
0.014003
0.022986
0.014238
0.016655
0.016208
0.016654
0.012823
0.009175
0.020990
0.020353
0.016917
0.020966
0.025712
0.021307
0.009488
0.023816
0.024594
0.011450
0.021562
0.021279
0.011148
0.021555
0.009836
0.017413
0.026936
0.008803
0.019103
0.022997
0.008720
0.014763
0.020809
0.011583
0.022264
0.017410
0.024299
0.014703
0.010118
0.013847
0.020217
0.019369
0.012086
0.010335
0.012619
0.013215
0.016378
0.025807
0.010815
0.020011
0.017362
0.015956
0.023490
0.014841
0.014668
0.017797
0.027024
0.025002
0.018251
0.008976
0.015772
0.009971
0.013902
0.015884
0.008790
0.016476
0.012663
0.012736
0.012235
0.017057
0.017952
0.009011
0.016132
0.017207
0.012758
0.009208
0.010419
0.013862
0.018700
0.010970
0.014963
0.011876
0.008455
0.014349
0.015424
0.008161
0.015661
0.010907
0.014180
0.015728
0.010802
0.013662
0.014961
0.012249
0.014888
0.008390
0.012249
0.014636
0.015400
0.011468
0.017447
0.018402
0.013092
0.006784
0.012935
0.007237
0.019529
0.010406
0.008117
0.017629
0.023766
0.009618
0.012840
0.021863
0.007794
0.026011
0.012173
0.007803
0.011749
0.009012
0.006491
0.016986
0.008427
0.015344
0.014844
0.010234
0.007201
0.012794
0.008626
0.019440
0.020976
0.014149
0.013758
0.018036
0.007687
0.016182
0.025115
0.008356
0.023905
0.015587
0.026480
0.009690
0.020546
0.007917
0.017059
0.007045
0.008671
0.006698
0.011335
0.006566
0.015861
0.010992
0.008735
0.010543
0.010373
0.020086
0.022641
0.007378
0.023904
0.014681
0.021419
0.016954
0.017134
0.012595
0.013071
0.015676
0.012088
0.014490
0.010776
0.010684
0.011690
0.010780
0.019050
0.012712
0.011724
0.011484
0.019065
0.015346
0.010128
0.016301
0.015254
0.012558
0.012981
0.011425
0.016666
0.010448
0.017757
0.011866
0.012659
0.010690
0.013336
0.015225
0.014516
0.017753
0.018639
0.016569
0.017943
0.015030
0.010303
0.018757
0.012301
0.017030
0.010277
0.017818
0.013782
0.019243
0.013524
0.017771
0.014550
0.012676
0.013868
0.015272
0.016585
0.018510
0.011108
0.009605
0.015404
0.019337
0.013935
0.012240
0.012126
0.010796
0.010301
0.023047
0.014886
0.007896
0.023021
0.016313
0.021140
0.013863
0.007308
0.020587
0.013215
0.008008
0.010588
0.014496
0.010722
0.010523
0.015892
0.008692
0.007929
0.021976
0.025809
0.027093
0.022826
0.011086
0.017530
0.007085
0.019263
0.024356
0.017713
0.011085
0.017828
0.010578
0.014070
0.012488
0.016058
0.017669
0.017404
0.022950
0.009564
0.012424
0.009267
0.009409
0.010062
0.009157
0.018738
0.012943
0.020529
0.013699
0.025259
0.027042
0.025315
0.019966
0.018846
0.021807
0.010859
0.017243
0.018774
0.014877
0.008047
0.025747
0.008484
0.006646
0.008555
0.014524
0.010976
0.008240
0.009959
0.014259
0.009783
0.012784
0.010425
0.012571
0.008049
0.010817
0.007771
0.009756
0.009281
0.010316
0.006512
0.008517
0.016353
0.013185
0.013880
0.017531
0.010714
0.010397
0.008197
0.012686
0.010645
0.015527
0.011774
0.010627
0.009286
0.007089
0.007809
0.009329
0.010978
0.012730
0.010815
0.014594
0.010478
0.008615
0.008746
0.007717
0.009167
0.007139
0.008656
0.008719
0.012297
0.009127
0.012823
0.015936
0.017588
0.011724
0.016049
0.011866
0.014411
0.010600
0.012187
0.012755
0.009730
0.007811
0.016322
0.007707
0.007924
0.013079
0.020446
0.022552
0.014301
0.007274
0.013816
0.007486
0.010987
0.008632
0.012740
0.025193
0.026366
0.016266
0.008483
0.022355
0.015518
0.027021
0.009630
0.012673
0.010518
0.008625
0.006854
0.017477
0.025083
0.017226
0.011215
0.008182
0.007632
0.013157
0.022275
0.018782
0.021750
0.024076
0.017828
0.016875
0.020698
0.009788
0.017437
0.009665
0.025552
0.025230
0.019133
0.027099
0.012362
0.021731
0.010446
0.018113
0.007464
0.009587
0.009489
0.012806
0.008045
0.013702
0.017476
0.008549
0.010832
0.021780
0.013564
0.021983
0.009097
0.019043
0.017045
0.014494
0.010919
0.008189
0.009866
0.014236
0.009743
0.012790
0.008010
0.010397
0.012629
0.008094
0.007927
0.010830
0.007509
0.009283
0.010391
0.006462
0.008585
0.016347
0.013092
0.013771
0.017509
0.010696
0.010396
0.007125
0.012674
0.010551
0.015571
0.011769
0.010636
0.009584
0.009061
0.011200
0.012780
0.010676
0.014589
0.010349
0.008647
0.008952
0.007561
0.010200
0.007068
0.008797
0.008604
0.012304
0.009045
0.012869
0.015873
0.017528
0.011595
0.016030
0.011787
0.014420
0.010641
0.012181
0.009551
0.012821
0.008972
0.016259
0.007122
0.008084
0.007964
0.011445
0.017445
0.019882
0.013173
0.006823
0.013001
0.007325
0.010445
0.008236
0.023899
0.009626
0.024742
0.012810
0.021993
0.007789
0.025791
0.012158
0.007872
0.011836
0.009048
0.006570
0.017137
0.008441
0.023589
0.014825
0.010252
0.007294
0.012854
0.008702
0.019192
0.015656
0.021118
0.021673
0.014292
0.013760
0.018215
0.007666
0.016332
0.025234
0.008330
0.022930
0.015596
0.026511
0.009635
0.020688
0.007900
0.017222
0.007024
0.008762
0.006800
0.011374
0.006619
0.015977
0.010941
0.008816
0.010600
0.020363
0.010401
0.020133
0.007435
0.017496
0.016333
0.015316
0.018066
0.017357
0.013111
0.011258
0.012079
0.010523
0.014992
0.010635
0.011145
0.012348
0.015087
0.018712
0.019120
0.012761
0.015639
0.012209
0.018865
0.012975
0.014053
0.011321
0.010273
0.011870
0.011603
0.017296
0.017671
0.011475
0.010316
0.010745
0.010411
0.018222
0.017455
0.019289
0.018505
0.017315
0.014429
0.015107
0.012124
0.017538
0.015405
0.018860
0.012247
0.019104
0.014919
0.016451
0.013943
0.013178
0.012478
0.010420
0.013068
0.011140
0.016566
0.016836
0.011793
0.009651
0.017729
0.016226
0.015328
0.010248
0.012489
0.015305
0.011601
0.013497
0.013833
0.021561
0.015205
0.016603
0.018985
0.018570
0.006884
0.003573
0.013780
0.012876
0.015630
0.013849
0.022735
0.013195
0.014208
0.015265
0.023130
0.017605
0.003189
0.008915
0.011044
0.010616
0.013361
0.021455
0.018232
0.020425
0.017742
0.018991
0.015503
0.022992
0.022140
0.019981
0.019070
0.012384
0.023459
0.023019
0.008916
0.018188
0.008101
0.017619
0.026410
0.014582
0.018745
0.015385
0.025235
0.010684
0.010784
0.022793
0.011616
0.013642
0.021104
0.025425
0.017615
0.017114
0.015593
0.016915
0.012353
0.017233
0.020186
0.017243
0.017399
0.015037
0.016193
0.016643
0.017400
0.021940
0.025981
0.013404
0.018264
0.021608
0.021983
0.022026
0.024536
0.014878
0.017873
0.020229
0.024379
0.021880
0.020867
0.019192
0.022286
0.021036
0.025839
0.023060
0.018653
0.009751
0.010734
0.008466
0.013871
0.009932
0.009654
0.016811
0.018955
0.016018
0.016539
0.017682
0.018189
0.008696
0.006666
0.017252
0.005197
