# vtk DataFile Version 2.0
Unstructured Grid Example
ASCII
DATASET UNSTRUCTURED_GRID
POINTS 1108 float
0.997469 -0.000969 0.023893 
-0.997468 0.000940 -0.023668 
-0.001241 0.986138 0.003649 
0.001072 -0.985825 -0.003792 
0.023512 0.003675 1.016560 
-0.023412 -0.003809 -1.016426 
1.197583 -0.000674 0.015834 
-1.197622 0.000429 -0.015846 
-0.000879 1.186573 0.002476 
0.000809 -1.186770 -0.002686 
0.015704 0.002480 1.215585 
-0.015787 -0.002572 -1.215670 
0.977932 0.192234 0.024030 
0.920498 0.377532 0.023395 
0.827400 0.547979 0.021681 
0.702628 0.697350 0.019486 
0.551252 0.819652 0.015824 
0.379228 0.910535 0.012237 
0.192750 0.966703 0.008174 
-0.195170 0.967977 -0.000619 
-0.381486 0.912394 -0.005322 
-0.553865 0.821791 -0.010127 
-0.704869 0.699676 -0.014304 
-0.828723 0.550365 -0.017428 
-0.921678 0.379774 -0.020604 
-0.978441 0.194085 -0.022479 
-0.977918 -0.192427 -0.023831 
-0.920808 -0.377718 -0.023200 
-0.828005 -0.548252 -0.021523 
-0.703198 -0.697512 -0.019316 
-0.551551 -0.819641 -0.016031 
-0.379373 -0.910509 -0.012564 
-0.192767 -0.966791 -0.008118 
0.194832 -0.967591 0.000633 
0.381427 -0.911912 0.005258 
0.553760 -0.821612 0.010379 
0.704912 -0.699640 0.014244 
0.828759 -0.550304 0.017451 
0.921769 -0.379822 0.020655 
0.978428 -0.194159 0.022540 
0.023181 -0.190516 0.995279 
0.022143 -0.376806 0.935307 
0.019984 -0.547641 0.839112 
0.017296 -0.696935 0.711005 
0.014065 -0.818801 0.556874 
0.009804 -0.909751 0.381575 
0.005461 -0.965944 0.192407 
-0.003542 -0.968717 -0.199777 
-0.007992 -0.914918 -0.389291 
-0.012272 -0.825943 -0.564834 
-0.015829 -0.704850 -0.719185 
-0.018763 -0.555850 -0.846264 
-0.021264 -0.384608 -0.940692 
-0.022663 -0.198108 -0.998105 
-0.023150 0.190577 -0.995226 
-0.021893 0.376831 -0.934875 
-0.020158 0.547587 -0.839055 
-0.017399 0.696983 -0.711203 
-0.014023 0.818915 -0.557000 
-0.009967 0.909779 -0.381720 
-0.005668 0.965962 -0.192484 
0.003345 0.968705 0.199706 
0.008083 0.914787 0.389607 
0.012280 0.826010 0.564757 
0.015958 0.704750 0.719074 
0.018934 0.555785 0.846403 
0.021336 0.384478 0.940423 
0.022817 0.197972 0.997931 
0.987580 -0.000232 0.221042 
0.939360 0.000582 0.412227 
0.853908 0.001130 0.588201 
0.733047 0.001718 0.741969 
0.582606 0.002592 0.866145 
0.409068 0.003020 0.955059 
0.219807 0.003330 1.005396 
-0.171875 0.003662 0.987945 
-0.358700 0.004012 0.921529 
-0.530954 0.003509 0.821015 
-0.682222 0.003276 0.691716 
-0.808091 0.003072 0.536436 
-0.905450 0.002142 0.361722 
-0.969318 0.001603 0.172881 
-0.987612 0.000183 -0.220858 
-0.939167 -0.000566 -0.412011 
-0.853483 -0.001060 -0.588104 
-0.732757 -0.001708 -0.741846 
-0.582405 -0.002394 -0.866507 
-0.409082 -0.002952 -0.955108 
-0.219748 -0.003396 -1.005367 
0.172075 -0.003879 -0.987947 
0.358802 -0.004010 -0.921608 
0.531203 -0.003649 -0.821143 
0.682403 -0.003345 -0.691698 
0.808069 -0.003036 -0.536478 
0.905428 -0.002306 -0.361592 
0.969545 -0.001715 -0.172832 
1.182510 0.185861 0.015886 
1.137939 0.367611 0.015812 
1.064958 0.540150 0.015050 
0.966215 0.698890 0.014376 
0.843736 0.839903 0.013116 
0.700502 0.960585 0.010885 
0.540535 1.057260 0.009247 
0.367551 1.128070 0.007054 
0.185720 1.171661 0.005176 
-0.187416 1.172522 -0.000215 
-0.369212 1.129960 -0.003044 
-0.542439 1.059149 -0.004816 
-0.702243 0.962822 -0.006856 
-0.845747 0.842060 -0.009040 
-0.968362 0.700362 -0.011599 
-1.066429 0.541731 -0.012840 
-1.139155 0.368850 -0.014039 
-1.183126 0.186951 -0.015071 
-1.182605 -0.185851 -0.015958 
-1.138242 -0.367729 -0.015776 
-1.065441 -0.540308 -0.015082 
-0.966688 -0.699183 -0.014265 
-0.843755 -0.840114 -0.012717 
-0.700522 -0.960785 -0.010833 
-0.540663 -1.057239 -0.009140 
-0.367628 -1.128139 -0.007092 
-0.185737 -1.171594 -0.005198 
0.187220 -1.172429 0.000164 
0.369041 -1.129566 0.002961 
0.542176 -1.058967 0.004891 
0.702084 -0.962675 0.007006 
0.845634 -0.842157 0.009145 
0.968323 -0.700427 0.011824 
1.066431 -0.541789 0.012912 
1.139178 -0.368919 0.014052 
1.183107 -0.187080 0.015142 
-0.002053 -1.173479 -0.190623 
-0.004175 -1.132071 -0.374117 
-0.006587 -1.063215 -0.549542 
-0.008341 -0.968020 -0.712435 
-0.010650 -0.848462 -0.857883 
-0.012716 -0.707518 -0.983003 
-0.013617 -0.547771 -1.083962 
-0.014566 -0.373988 -1.157626 
-0.015382 -0.190535 -1.201769 
-0.015535 0.185312 -1.199287 
-0.015121 0.368335 -1.152439 
-0.014358 0.541030 -1.077339 
-0.013243 0.699725 -0.975578 
-0.011657 0.840754 -0.850834 
-0.009414 0.960959 -0.704799 
-0.007685 1.056946 -0.543051 
-0.005959 1.127211 -0.368771 
-0.003174 1.171054 -0.185179 
0.002164 1.173685 0.190739 
0.004139 1.131896 0.374299 
0.006099 1.063555 0.548980 
0.008299 0.968106 0.712437 
0.010651 0.848364 0.857930 
0.012944 0.707496 0.982699 
0.013730 0.547721 1.083884 
0.014686 0.373966 1.157413 
0.015449 0.190614 1.201703 
0.015695 -0.185447 1.199256 
0.015123 -0.368204 1.152716 
0.014340 -0.541188 1.077386 
0.013293 -0.699825 0.975327 
0.011587 -0.840791 0.850646 
0.009359 -0.960882 0.704649 
0.007651 -1.056844 0.542955 
0.005915 -1.127185 0.368637 
0.003109 -1.170995 0.184921 
-1.174798 0.001034 0.172607 
-1.124439 0.001140 0.354601 
-1.047896 0.001736 0.527345 
-0.948021 0.001716 0.687337 
-0.826538 0.002439 0.832360 
-0.684442 0.002445 0.957968 
-0.526421 0.002493 1.060821 
-0.354646 0.002415 1.140353 
-0.172680 0.002579 1.192489 
0.205226 0.002224 1.208590 
0.390972 0.002199 1.170578 
0.568305 0.001926 1.102428 
0.731287 0.001544 1.004635 
0.874355 0.001283 0.880092 
0.995209 0.001059 0.733989 
1.089980 0.000449 0.569592 
1.155339 0.000019 0.391512 
1.191064 -0.000286 0.204922 
1.174868 -0.001113 -0.172360 
1.124306 -0.001457 -0.354681 
1.047773 -0.001764 -0.527342 
0.948181 -0.001854 -0.687418 
0.826490 -0.002379 -0.832472 
0.684396 -0.002296 -0.958041 
0.526477 -0.002456 -1.060957 
0.354865 -0.002505 -1.140303 
0.172675 -0.002516 -1.192622 
-0.205085 -0.002181 -1.208445 
-0.390738 -0.002150 -1.170581 
-0.568317 -0.002024 -1.102639 
-0.731186 -0.001919 -1.004204 
-0.874218 -0.001269 -0.879908 
-0.994937 -0.001008 -0.733773 
-1.089617 -0.000384 -0.569386 
-1.155179 0.000015 -0.391431 
-1.191068 0.000250 -0.204872 
0.801434 -0.392064 -0.398233 
0.404955 -0.784809 -0.439439 
0.372823 -0.376372 -0.836196 
0.877426 -0.295622 -0.318039 
0.288099 -0.883834 -0.333586 
0.660285 -0.333122 -0.636452 
0.541101 -0.623414 -0.532172 
0.863492 -0.475693 -0.090630 
0.163328 -0.616891 -0.770718 
0.589026 -0.171975 -0.760220 
0.853554 -0.155987 -0.441372 
0.195304 -0.843964 -0.483230 
0.940036 -0.138073 -0.244999 
0.783388 -0.289920 -0.500728 
0.670278 -0.635836 -0.331280 
0.457595 -0.851182 -0.195420 
0.621472 -0.747897 -0.163576 
0.506871 -0.473365 -0.696552 
0.774028 -0.142408 -0.569188 
0.545639 -0.744044 -0.340572 
0.978466 -0.122663 -0.091398 
0.764196 -0.609706 -0.136972 
0.146720 -0.937048 -0.279873 
0.929348 -0.303923 -0.138972 
0.717792 -0.464009 -0.472814 
0.264948 -0.938863 -0.150908 
0.527265 -0.299451 -0.770824 
0.318434 -0.699167 -0.625432 
0.820712 -0.463259 -0.273533 
0.475099 -0.182331 -0.841113 
0.133111 -0.752843 -0.641477 
0.175472 -0.479824 -0.862300 
0.155715 -0.319239 -0.940213 
0.332979 -0.552972 -0.752644 
0.618692 -0.476118 -0.589749 
0.122390 -0.971364 -0.127088 
0.430727 -0.596471 -0.656870 
0.306871 -0.217236 -0.920561 
0.182455 -0.135491 -0.976865 
0.480989 0.569793 -0.625945 
0.490348 0.769062 -0.346036 
0.787658 0.363087 -0.435365 
0.378406 0.457909 -0.778986 
0.339775 0.869968 -0.292019 
0.267957 0.305549 -0.902840 
0.147166 0.158502 -0.978700 
0.737640 0.209137 -0.592424 
0.652424 0.525148 -0.490740 
0.493967 0.832483 -0.156635 
0.577152 0.169643 -0.765649 
0.170839 0.862504 -0.436802 
0.147806 0.466094 -0.865500 
0.538386 0.668903 -0.456615 
0.143765 0.938517 -0.250891 
0.365941 0.133662 -0.906246 
0.101362 0.316196 -0.945296 
0.611156 0.689195 -0.319522 
0.096255 0.614869 -0.773076 
0.151311 0.742092 -0.630544 
0.281686 0.612335 -0.714212 
0.845790 0.477095 -0.149926 
0.585637 0.383052 -0.673231 
0.360013 0.751204 -0.509437 
0.744169 0.542208 -0.317519 
0.121259 0.970581 -0.105432 
0.282828 0.931572 -0.130744 
0.698343 0.678502 -0.129784 
0.931743 0.142599 -0.263626 
0.449495 0.296793 -0.816368 
0.838312 0.401029 -0.295989 
0.855463 0.164798 -0.428938 
0.928335 0.286833 -0.154846 
0.878487 0.276696 -0.319679 
0.973981 0.125314 -0.108978 
0.702792 0.374262 -0.552629 
0.483432 0.463609 0.788956 
0.461421 0.800473 0.401756 
0.845025 0.411754 0.400186 
0.357147 0.318005 0.918460 
0.308811 0.897173 0.309501 
0.914478 0.336320 0.282172 
0.970423 0.167664 0.236954 
0.567114 0.632842 0.569147 
0.129027 0.482972 0.889962 
0.776583 0.168907 0.670783 
0.469038 0.163976 0.915065 
0.430931 0.874943 0.197661 
0.868805 0.469006 0.192329 
0.286816 0.145333 0.982606 
0.254762 0.944803 0.152523 
0.941163 0.319409 0.148517 
0.639806 0.162995 0.808908 
0.541111 0.295840 0.838743 
0.336414 0.630438 0.732507 
0.775826 0.614633 0.135930 
0.670987 0.716834 0.190259 
0.608733 0.497373 0.668830 
0.208067 0.751932 0.645713 
0.767967 0.575251 0.322467 
0.639034 0.682502 0.389589 
0.404305 0.719010 0.596046 
0.555484 0.796346 0.240424 
0.111090 0.973569 0.129949 
0.136251 0.127055 1.007913 
0.484205 0.596808 0.681581 
0.169141 0.613908 0.794564 
0.719759 0.507974 0.526690 
0.665717 0.353462 0.714289 
0.180821 0.312758 0.961196 
0.169921 0.938815 0.277936 
0.804406 0.321796 0.562999 
0.861411 0.142251 0.556019 
0.226036 0.859256 0.466714 
0.902192 0.233910 0.428922 
0.278210 0.480085 0.865574 
0.520296 -0.780802 0.355229 
0.353006 -0.369870 0.891316 
0.335622 -0.863738 0.367194 
0.171030 -0.460499 0.887868 
0.539757 -0.156661 0.875543 
0.430138 -0.874423 0.196274 
0.625006 -0.544696 0.600216 
0.291467 -0.171675 0.973428 
0.231569 -0.944215 0.182058 
0.917740 -0.371806 0.185121 
0.787252 -0.399852 0.524484 
0.740731 -0.654458 0.158051 
0.886946 -0.188122 0.487746 
0.963559 -0.180927 0.260275 
0.531357 -0.320820 0.828396 
0.579575 -0.672334 0.488321 
0.614065 -0.767144 0.176387 
0.716843 -0.633066 0.323079 
[...]
POINT_DATA 1108
SCALARS u float 1
LOOKUP_TABLE default
0.024047
0.023822
0.014388
0.014713
0.028993
0.028852
0.016031
0.016029
0.013681
0.013524
0.022264
0.022391
0.024367
0.024193
0.023329
0.022248
0.020217
0.018432
0.016450
0.012824
0.012715
0.014112
0.016274
0.018395
0.020925
0.022623
0.024150
0.023923
0.022996
0.021919
0.020324
0.018644
0.016345
0.013212
0.013132
0.014428
0.016232
0.018429
0.020959
0.022682
0.027719
0.025602
0.022817
0.020440
0.018974
0.017233
0.016040
0.013422
0.013705
0.016339
0.020039
0.023896
0.027176
0.028683
0.027656
0.025189
0.022970
0.020542
0.018876
0.017294
0.016082
0.013357
0.013998
0.016279
0.020086
0.024115
0.027058
0.028686
0.026827
0.033358
0.039617
0.043489
0.044046
0.040956
0.035038
0.024568
0.024430
0.026974
0.029442
0.030366
0.027993
0.025046
0.026658
0.033077
0.039296
0.043216
0.044198
0.040997
0.034983
0.024414
0.024322
0.026715
0.029307
0.030353
0.028118
0.024995
0.016223
0.016474
0.016312
0.016417
0.016413
0.015706
0.015695
0.015317
0.014656
0.012709
0.011821
0.011397
0.010981
0.011458
0.012860
0.013489
0.014333
0.015236
0.016280
0.016358
0.016178
0.016078
0.015978
0.015534
0.015614
0.015260
0.014724
0.012808
0.012201
0.011645
0.011227
0.011515
0.013046
0.013544
0.014333
0.015303
0.012273
0.010624
0.010095
0.011301
0.014175
0.017744
0.020298
0.022132
0.022764
0.021091
0.018964
0.016923
0.015151
0.014200
0.013644
0.014575
0.015404
0.014744
0.012124
0.010820
0.009313
0.011250
0.014208
0.017700
0.020310
0.022051
0.022771
0.021174
0.019147
0.016896
0.015082
0.014093
0.013669
0.014655
0.015430
0.014833
0.018392
0.023400
0.027595
0.029102
0.027403
0.024658
0.020345
0.016380
0.016901
0.029278
0.035637
0.040747
0.042649
0.040804
0.037638
0.032356
0.025022
0.018167
0.018561
0.023459
0.027694
0.028935
0.027370
0.024644
0.020234
0.016180
0.016953
0.029075
0.035505
0.040930
0.042262
0.040575
0.037295
0.031964
0.024866
0.018121
0.024513
0.015507
0.021457
0.024584
0.013600
0.025608
0.019709
0.019766
0.018992
0.026392
0.027859
0.014457
0.025238
0.026763
0.019903
0.014527
0.016649
0.021511
0.029042
0.017176
0.023364
0.018540
0.013141
0.022264
0.023992
0.012888
0.024220
0.016737
0.022084
0.024281
0.016693
0.021120
0.023167
0.018866
0.023168
0.013207
0.018867
0.022661
0.023883
0.027982
0.025300
0.030453
0.026119
0.022303
0.024427
0.024677
0.031088
0.029554
0.022402
0.028886
0.020921
0.023159
0.027921
0.018859
0.025208
0.024355
0.026634
0.021984
0.021725
0.024435
0.025739
0.030037
0.025054
0.028409
0.016894
0.019175
0.024281
0.027217
0.027376
0.028283
0.030300
0.025760
0.028706
0.024808
0.030820
0.037665
0.021210
0.031033
0.038271
0.016459
0.028150
0.027843
0.029794
0.028597
0.041541
0.042264
0.017751
0.025045
0.037670
0.015749
0.025352
0.044333
0.042001
0.029509
0.022722
0.021692
0.035899
0.022718
0.026024
0.025240
0.025994
0.019842
0.014112
0.032610
0.032355
0.026354
0.032803
0.040335
0.033022
0.014493
0.037373
0.038640
0.017690
0.033569
0.033099
0.017471
0.033592
0.015344
0.027031
0.041637
0.013857
0.029796
0.035761
0.013743
0.022991
0.032563
0.018051
0.034795
0.027234
0.037953
0.022793
0.016007
0.021662
0.031632
0.030297
0.018902
0.016030
0.019589
0.020523
0.025520
0.040247
0.016789
0.031186
0.027204
0.025117
0.036692
0.023298
0.022856
0.027837
0.042107
0.038788
0.028639
0.014136
0.028174
0.025467
0.030099
0.026465
0.022566
0.024395
0.024562
0.030924
0.029725
0.022642
0.029264
0.020930
0.023304
0.027494
0.018679
0.025312
0.024348
0.026612
0.021865
0.021701
0.024467
0.025251
0.030183
0.025107
0.028227
0.016886
0.019291
0.024073
0.026989
0.027372
0.028336
0.030168
0.025417
0.028509
0.024726
0.031015
0.036969
0.020973
0.030479
0.038313
0.016608
0.027943
0.027694
0.029876
0.028476
0.041500
0.042215
0.017844
0.024816
0.037523
0.015666
0.025132
0.043864
0.041909
0.029090
0.022375
0.021772
0.035738
0.022137
0.025895
0.025199
0.025893
0.019936
0.014264
0.032635
0.031644
0.026302
0.032597
0.039975
0.033128
0.014751
0.037028
0.038237
0.017801
0.033523
0.033083
0.017333
0.033513
0.015293
0.027072
0.041879
0.013686
0.029700
0.035755
0.013557
0.022953
0.032352
0.018009
0.034615
0.027069
0.037780
0.022859
0.015731
0.021529
0.031432
0.030114
0.018791
0.016068
0.019619
0.020547
0.025464
0.040123
0.016814
0.031113
0.026995
0.024808
0.036522
0.023075
0.022806
0.027669
0.042017
0.038872
0.028376
0.013956
0.024522
0.015502
0.021615
0.024696
0.013667
0.025616
0.019689
0.019801
0.019023
0.026520
0.027910
0.014010
0.025082
0.026752
0.019836
0.014316
0.016199
0.021552
0.029075
0.017055
0.023265
0.018464
0.013146
0.022309
0.023980
0.012689
0.024348
0.016958
0.022046
0.024454
0.016794
0.021242
0.023260
0.019044
0.023147
0.013044
0.019045
0.022755
0.023944
0.017830
0.027125
0.028610
0.020356
0.010548
0.020111
0.011252
0.030362
0.016179
0.012619
0.027408
0.036951
0.014954
0.019963
0.033992
0.012118
0.040440
0.018927
0.012132
0.018267
0.014011
0.010091
0.026409
0.013102
0.023857
0.023079
0.015911
0.011196
0.019892
0.013412
0.030225
0.032613
0.021999
0.021390
0.028041
0.011951
0.025159
0.039047
0.012992
0.037167
0.024233
0.041170
0.015066
0.031944
0.012310
0.026523
0.010954
0.013482
0.010414
0.017623
0.010209
0.024661
0.017090
0.013582
0.016391
0.016128
0.031229
0.035202
0.011471
0.037165
0.022826
0.033302
0.026359
0.026639
0.019583
0.020322
0.024372
0.018794
0.022529
0.016755
0.016612
0.018176
0.016760
0.029618
0.019763
0.018229
0.017855
0.029641
0.023859
0.015746
0.025345
0.023717
0.019525
0.020182
0.017763
0.025911
0.016243
0.027609
0.018448
0.019682
0.016621
0.020734
0.023672
0.022569
0.027601
0.028979
0.025762
0.027897
0.023369
0.016019
0.029163
0.019125
0.026478
0.015978
0.027703
0.021428
0.029919
0.021026
0.027629
0.022622
0.019708
0.021561
0.023744
0.025786
0.028779
0.017271
0.014933
0.023950
0.030065
0.021665
0.019030
0.018853
0.016786
0.016016
0.035833
0.023144
0.012277
0.035792
0.025363
0.032867
0.021554
0.011362
0.032008
0.020547
0.012451
0.016463
0.022537
0.016670
0.016360
0.024708
0.013514
0.012327
0.034168
0.040128
0.042122
0.035488
0.017236
0.027254
0.011015
0.029950
0.037868
0.027540
0.017234
0.027718
0.016446
0.021875
0.019416
0.024966
0.027472
0.027059
0.035682
0.014870
0.019317
0.014408
0.014629
0.015643
0.014238
0.029132
0.020124
0.031918
0.021298
0.039271
0.042044
0.039359
0.031042
0.029301
0.033904
0.016883
0.026808
0.029189
0.023130
0.012512
0.040030
0.013191
0.010332
0.013301
0.022581
0.017065
0.012811
0.015483
0.022169
0.015210
0.019876
0.016209
0.019544
0.012514
0.016818
0.012082
0.015168
0.014430
0.016039
0.010125
0.013242
0.025425
0.020500
0.021580
0.027256
0.016658
0.016165
0.012745
0.019723
0.016551
0.024140
0.018306
0.016522
0.014438
0.011022
0.012142
0.014505
0.017068
0.019792
0.016814
0.022690
0.016290
0.013394
0.013597
0.011998
0.014252
0.011099
0.013459
0.013556
0.019119
0.014190
0.019937
0.024777
0.027346
0.018227
0.024952
0.018448
0.022406
0.016481
0.018947
0.019831
0.015129
0.012145
0.025377
0.011983
0.012320
0.020335
0.031788
0.035062
0.022235
0.011310
0.021480
0.011639
0.017082
0.013420
0.019808
0.039170
0.040993
0.025290
0.013189
0.034758
0.024127
0.042012
0.014972
0.019704
0.016354
0.013409
0.010656
0.027173
0.038999
0.026783
0.017436
0.012721
0.011866
0.020456
0.034632
0.029202
0.033816
0.037432
0.027718
0.026236
0.032181
0.015218
0.027110
0.015027
0.039727
0.039227
0.029748
0.042133
0.019221
0.033787
0.016241
0.028162
0.011605
0.014906
0.014754
0.019910
0.012508
0.021303
0.027171
0.013291
0.016841
0.033863
0.021089
0.034179
0.014144
0.029608
0.026500
0.022535
0.016977
0.012732
0.015339
0.022133
0.015148
0.019885
0.012453
0.016165
0.019635
0.012584
0.012325
0.016838
0.011675
0.014432
0.016155
0.010047
0.013347
0.025415
0.020355
0.021410
0.027223
0.016629
0.016164
0.011078
0.019706
0.016404
0.024209
0.018298
0.016536
0.014900
0.014087
0.017413
0.019870
0.016599
0.022682
0.016091
0.013444
0.013918
0.011756
0.015858
0.010989
0.013678
0.013378
0.019130
0.014062
0.020009
0.024680
0.027251
0.018028
0.024923
0.018326
0.022419
0.016544
0.018938
0.014850
0.019933
0.013949
0.025279
0.011073
0.012569
0.012382
0.017794
0.027124
0.030912
0.020481
0.010609
0.020214
0.011389
0.016239
0.012805
0.037158
0.014966
0.038467
0.019917
0.034194
0.012110
0.040098
0.018903
0.012239
0.018402
0.014068
0.010215
0.026643
0.013123
0.036676
0.023050
0.015939
0.011340
0.019985
0.013530
0.029839
0.024342
0.032833
0.033696
0.022221
0.021393
0.028320
0.011919
0.025392
0.039234
0.012951
0.035650
0.024248
0.041219
0.014980
0.032165
0.012283
0.026777
0.010920
0.013622
0.010573
0.017684
0.010292
0.024840
0.017011
0.013706
0.016480
0.031659
0.016171
0.031302
0.011559
0.027201
0.025394
0.023812
0.028089
0.026987
0.020384
0.017503
0.018781
0.016361
0.023309
0.016535
0.017328
0.019198
0.023456
0.029093
0.029727
0.019840
0.024314
0.018982
0.029331
0.020173
0.021849
0.017602
0.015973
0.018456
0.018041
0.026891
0.027474
0.017841
0.016039
0.016707
0.016187
0.028332
0.027138
0.029990
0.028771
0.026921
0.022434
0.023488
0.018850
0.027268
0.023951
0.029323
0.019042
0.029702
0.023195
0.025578
0.021678
0.020489
0.019400
0.016200
0.020318
0.017320
0.025757
0.026177
0.018335
0.015006
0.027564
0.025228
0.023831
0.015934
0.019417
0.023795
0.018038
0.020985
0.021507
0.033522
0.023640
0.025814
0.029517
0.028873
0.010704
0.005556
0.021425
0.020019
0.024300
0.021532
0.035347
0.020515
0.022090
0.023734
0.035962
0.027372
0.004957
0.013861
0.017171
0.016506
0.020773
0.033357
0.028346
0.031755
0.027584
0.029527
0.024103
0.035747
0.034423
0.031065
0.029649
0.019255
0.036474
0.035789
0.013863
0.028279
0.012596
0.027393
0.041062
0.022671
0.029144
0.023919
0.039235
0.016612
0.016766
0.035438
0.018060
0.021211
0.032812
0.039529
0.027387
0.026608
0.024244
0.026299
0.019207
0.026793
0.031384
0.026809
0.027051
0.023379
0.025176
0.025875
0.027053
0.034111
0.040395
0.020840
0.028396
0.033595
0.034179
0.034245
0.038147
0.023132
0.027789
0.031452
0.037904
0.034018
0.032442
0.029839
0.034649
0.032706
0.040174
0.035853
0.029002
0.015161
0.016688
0.013162
0.021566
0.015443
0.015010
0.026137
0.029470
0.024904
0.025715
0.027492
0.028279
0.013520
0.010364
0.026822
0.008080
