# vtk DataFile Version 2.0
Unstructured Grid Example
ASCII
DATASET UNSTRUCTURED_GRID
POINTS 1108 float
0.992956 -0.009129 0.001498 
-0.993066 0.009000 -0.001409 
-0.009092 1.009441 -0.002488 
0.009087 -1.009504 0.002512 
0.001489 -0.002422 0.997225 
-0.001520 0.002518 -0.997559 
1.193388 -0.006031 0.000994 
-1.193394 0.006093 -0.000933 
-0.006022 1.208924 -0.001552 
0.006149 -1.209006 0.001638 
0.000962 -0.001614 1.197397 
-0.000947 0.001563 -1.197572 
0.970693 0.186625 0.000925 
0.911669 0.374830 0.000448 
0.818402 0.548818 -0.000023 
0.694420 0.702076 -0.000660 
0.543956 0.829363 -0.001233 
0.372209 0.925500 -0.001709 
0.185595 0.986327 -0.002106 
-0.204041 0.993148 -0.002694 
-0.391612 0.938372 -0.002852 
-0.563706 0.846683 -0.002844 
-0.713720 0.721514 -0.002733 
-0.835710 0.568532 -0.002566 
-0.924599 0.394026 -0.002276 
-0.977613 0.205042 -0.001887 
-0.970844 -0.186700 -0.000874 
-0.911767 -0.374879 -0.000490 
-0.818655 -0.548902 0.000078 
-0.694651 -0.702052 0.000698 
-0.544018 -0.829234 0.001218 
-0.372170 -0.925326 0.001686 
-0.185513 -0.986356 0.002162 
0.204120 -0.993202 0.002760 
0.391672 -0.938317 0.002894 
0.563768 -0.846707 0.002912 
0.713855 -0.721520 0.002782 
0.835716 -0.568544 0.002595 
0.924700 -0.394129 0.002342 
0.977652 -0.205162 0.001974 
0.003301 -0.198659 0.979067 
0.004890 -0.387564 0.923598 
0.006356 -0.562067 0.832666 
0.007507 -0.715112 0.709435 
0.008402 -0.840890 0.558489 
0.008942 -0.934059 0.385810 
0.009314 -0.990791 0.197877 
0.008613 -0.988931 -0.192786 
0.007824 -0.930230 -0.380349 
0.006667 -0.835807 -0.553028 
0.005272 -0.709739 -0.704178 
0.003787 -0.556642 -0.828120 
0.002036 -0.382386 -0.920405 
0.000203 -0.193552 -0.977588 
-0.003190 0.198538 -0.979283 
-0.004833 0.387523 -0.923886 
-0.006314 0.561994 -0.832644 
-0.007422 0.715020 -0.709347 
-0.008303 0.840810 -0.558439 
-0.008861 0.933982 -0.385758 
-0.009228 0.990787 -0.197846 
-0.008555 0.988944 0.192892 
-0.007779 0.930277 0.380509 
-0.006724 0.836026 0.553029 
-0.005307 0.709843 0.704207 
-0.003913 0.556688 0.828155 
-0.002133 0.382493 0.920267 
-0.000251 0.193705 0.977411 
0.974574 -0.009356 0.195939 
0.918746 -0.009333 0.382855 
0.827408 -0.008808 0.555158 
0.704265 -0.008112 0.706303 
0.553861 -0.007135 0.830265 
0.382008 -0.005646 0.922197 
0.195462 -0.003971 0.978580 
-0.192583 -0.000495 0.977413 
-0.378814 0.001133 0.919992 
-0.550700 0.003126 0.827421 
-0.701362 0.004596 0.703156 
-0.824886 0.006114 0.551967 
-0.916718 0.007336 0.379746 
-0.973497 0.008299 0.192955 
-0.974597 0.009269 -0.195844 
-0.918714 0.009316 -0.382760 
-0.827347 0.008731 -0.555067 
-0.704198 0.008071 -0.706260 
-0.553708 0.006993 -0.830360 
-0.382057 0.005465 -0.922396 
-0.195595 0.003975 -0.978912 
0.192449 0.000706 -0.977552 
0.378956 -0.001152 -0.920141 
0.550720 -0.003051 -0.827513 
0.701252 -0.004631 -0.703131 
0.824730 -0.006142 -0.551927 
0.916674 -0.007475 -0.379686 
0.973497 -0.008477 -0.192813 
1.175667 0.181570 0.000728 
1.129716 0.364218 0.000402 
1.056791 0.537734 0.000086 
0.958820 0.698435 -0.000217 
0.837643 0.842619 -0.000375 
0.695851 0.966816 -0.000764 
0.536798 1.067922 -0.000996 
0.364125 1.143359 -0.001210 
0.181701 1.190871 -0.001459 
-0.194244 1.197037 -0.001695 
-0.378060 1.155091 -0.001910 
-0.552996 1.083940 -0.001899 
-0.713668 0.984818 -0.002014 
-0.855943 0.860978 -0.001811 
-0.976717 0.716221 -0.001683 
-1.072698 0.553827 -0.001609 
-1.141482 0.378233 -0.001435 
-1.181869 0.194131 -0.001255 
-1.175840 -0.181663 -0.000707 
-1.129844 -0.364407 -0.000306 
-1.056929 -0.537788 -0.000045 
-0.958996 -0.698643 0.000230 
-0.837545 -0.842815 0.000402 
-0.695755 -0.966844 0.000820 
-0.536740 -1.067812 0.001011 
-0.364104 -1.143264 0.001256 
-0.181696 -1.190912 0.001408 
0.194260 -1.197023 0.001727 
0.378148 -1.155076 0.001903 
0.553028 -1.083952 0.001948 
0.713710 -0.984839 0.002031 
0.856013 -0.861055 0.001847 
0.976812 -0.716294 0.001710 
1.072766 -0.553915 0.001638 
1.141576 -0.378287 0.001461 
1.181907 -0.194123 0.001284 
0.005839 -1.193128 -0.186644 
0.005446 -1.147658 -0.369896 
0.004938 -1.073937 -0.543711 
0.004429 -0.973931 -0.703904 
0.003543 -0.850260 -0.846433 
0.002599 -0.705992 -0.968175 
0.001796 -0.544555 -1.066098 
0.000903 -0.370086 -1.137919 
0.000092 -0.186743 -1.182054 
-0.002031 0.190063 -1.183816 
-0.002818 0.373626 -1.141038 
-0.003600 0.548832 -1.070266 
-0.004296 0.710608 -0.973079 
-0.004843 0.855258 -0.851428 
-0.005588 0.978890 -0.708805 
-0.005774 1.078515 -0.548209 
-0.005983 1.151015 -0.373645 
-0.006119 1.194919 -0.189991 
-0.005845 1.193106 0.186599 
-0.005456 1.147701 0.369959 
-0.004918 1.074267 0.543583 
-0.004531 0.974166 0.703927 
-0.003609 0.850371 0.846519 
-0.002443 0.706008 0.968133 
-0.001817 0.544560 1.066098 
-0.000946 0.370065 1.137815 
-0.000097 0.186660 1.181890 
0.001949 -0.189758 1.183537 
0.002814 -0.373713 1.140866 
0.003674 -0.548747 1.070251 
0.004329 -0.710624 0.973071 
0.004835 -0.855311 0.851504 
0.005633 -0.978953 0.708850 
0.005815 -1.078602 0.548252 
0.006028 -1.151063 0.373650 
0.006152 -1.194933 0.190014 
-1.178263 0.005677 0.185910 
-1.134257 0.005300 0.368304 
-1.062561 0.004614 0.541624 
-0.964698 0.004072 0.701828 
-0.843238 0.003051 0.844653 
-0.701031 0.002161 0.966548 
-0.541042 0.001325 1.065009 
-0.368299 0.000354 1.137664 
-0.186022 -0.000572 1.182121 
0.188001 -0.002557 1.183102 
0.370533 -0.003505 1.139456 
0.543866 -0.004217 1.067699 
0.703808 -0.004676 0.969491 
0.846208 -0.005425 0.847397 
0.967614 -0.005972 0.704395 
1.064891 -0.006057 0.544202 
1.136099 -0.006225 0.370502 
1.179301 -0.006226 0.188021 
1.178176 -0.005668 -0.185889 
1.134146 -0.005279 -0.368237 
1.062360 -0.004601 -0.541578 
0.964569 -0.003999 -0.701770 
0.843213 -0.003058 -0.844558 
0.701104 -0.002251 -0.966552 
0.541096 -0.001259 -1.065187 
0.368149 -0.000295 -1.137816 
0.186168 0.000362 -1.182239 
-0.187985 0.002471 -1.183363 
-0.370556 0.003683 -1.139794 
-0.543948 0.004190 -1.067791 
-0.703977 0.004894 -0.969452 
-0.846202 0.005378 -0.847339 
-0.967571 0.005900 -0.704347 
-1.064835 0.005985 -0.544155 
-1.136059 0.006165 -0.370470 
-1.179320 0.006188 -0.187999 
0.818732 -0.406028 -0.412422 
0.423250 -0.803652 -0.441128 
0.394260 -0.381121 -0.834579 
0.891150 -0.307672 -0.334330 
0.303935 -0.905164 -0.332780 
0.681062 -0.342551 -0.646413 
0.561444 -0.639316 -0.537665 
0.872599 -0.492683 -0.106177 
0.184524 -0.623401 -0.761059 
0.610019 -0.176051 -0.767462 
0.869336 -0.163970 -0.457519 
0.213400 -0.860256 -0.478518 
0.949119 -0.147218 -0.263493 
0.801999 -0.300684 -0.514774 
0.688177 -0.655367 -0.341573 
0.472174 -0.875883 -0.199676 
0.636054 -0.771133 -0.172645 
0.528047 -0.483432 -0.700374 
0.793157 -0.148779 -0.582957 
0.563690 -0.765201 -0.346621 
0.980935 -0.132120 -0.111441 
0.776757 -0.629881 -0.149743 
0.160977 -0.958143 -0.275547 
0.937174 -0.316983 -0.156788 
0.737428 -0.479001 -0.484473 
0.277449 -0.963367 -0.150025 
0.548641 -0.305366 -0.775741 
0.338551 -0.712057 -0.623413 
0.836083 -0.479405 -0.287613 
0.495943 -0.184749 -0.843808 
0.153061 -0.763167 -0.633030 
0.197244 -0.482994 -0.851718 
0.177488 -0.318963 -0.927904 
0.353916 -0.561509 -0.750150 
0.639792 -0.488974 -0.598000 
0.133370 -0.994989 -0.122989 
0.451247 -0.608531 -0.658623 
0.328060 -0.217424 -0.915445 
0.203518 -0.132989 -0.966213 
0.492328 0.582576 -0.636932 
0.493848 0.784539 -0.359546 
0.797241 0.367414 -0.452263 
0.392762 0.469445 -0.785330 
0.340724 0.889238 -0.303627 
0.285332 0.314484 -0.901761 
0.166538 0.165468 -0.969228 
0.752679 0.211671 -0.607027 
0.661594 0.534576 -0.505580 
0.491816 0.846592 -0.171604 
0.594934 0.173420 -0.774925 
0.174841 0.884550 -0.443635 
0.162666 0.478787 -0.863069 
0.545405 0.682890 -0.470305 
0.142651 0.961783 -0.258697 
0.385177 0.138767 -0.906647 
0.118890 0.326140 -0.937066 
0.614389 0.700536 -0.335397 
0.108304 0.631013 -0.772638 
0.159949 0.761213 -0.634664 
0.293628 0.627915 -0.719563 
0.843887 0.479519 -0.169976 
0.600053 0.391390 -0.684993 
0.366976 0.769083 -0.519824 
0.748773 0.549189 -0.334986 
0.116413 0.993247 -0.113511 
0.279543 0.950924 -0.141925 
0.695072 0.686041 -0.148386 
0.937430 0.139479 -0.283141 
0.466363 0.304612 -0.822914 
0.843054 0.404078 -0.314340 
0.867138 0.164301 -0.446311 
0.928035 0.285172 -0.175389 
0.884981 0.277212 -0.338386 
0.973474 0.120253 -0.130006 
0.714969 0.380555 -0.567428 
0.454854 0.455709 0.755070 
0.442947 0.803139 0.380048 
0.821103 0.404382 0.370061 
0.329285 0.310249 0.885540 
0.294590 0.906969 0.293619 
0.895103 0.329850 0.254366 
0.954135 0.159766 0.210113 
0.542301 0.628182 0.540291 
0.104856 0.480351 0.866210 
0.746856 0.159077 0.634840 
0.439896 0.155019 0.879492 
0.418716 0.884240 0.180588 
0.852734 0.465261 0.166902 
0.260445 0.137954 0.951771 
0.244554 0.960232 0.140044 
0.927295 0.314027 0.123294 
0.609100 0.153076 0.771178 
0.510989 0.286554 0.802177 
0.311590 0.627247 0.705606 
0.762692 0.614826 0.113053 
0.656898 0.718816 0.168009 
0.580573 0.489448 0.635561 
0.186459 0.754160 0.625418 
0.748078 0.571420 0.295851 
0.618328 0.680353 0.363707 
0.381583 0.717705 0.570972 
0.541009 0.800643 0.219961 
0.101450 0.992851 0.121368 
0.112166 0.120881 0.982897 
0.458027 0.591173 0.651367 
0.145688 0.612989 0.771971 
0.693412 0.500597 0.495395 
0.635662 0.344008 0.678226 
0.155461 0.307552 0.934065 
0.156765 0.953424 0.266183 
0.775645 0.312611 0.529069 
0.833736 0.132389 0.522482 
0.208200 0.866887 0.450178 
0.878053 0.225338 0.397911 
0.252016 0.474910 0.836817 
0.520303 -0.803581 0.346182 
0.333267 -0.380943 0.868959 
0.336270 -0.888455 0.363524 
0.154584 -0.472867 0.873725 
0.513892 -0.166218 0.843490 
0.435690 -0.900151 0.191507 
0.612477 -0.559714 0.580448 
0.268503 -0.180587 0.947176 
0.236933 -0.970823 0.182710 
0.914347 -0.385987 0.165100 
0.772288 -0.413056 0.500085 
0.744240 -0.674405 0.144271 
0.867432 -0.199210 0.459411 
0.952578 -0.192208 0.235949 
0.509687 -0.331612 0.801102 
0.573732 -0.691041 0.474499 
0.618921 -0.790397 0.166291 
0.714383 -0.652097 0.307552 
[...]
POINT_DATA 1108
SCALARS u float 1
LOOKUP_TABLE default
0.011628
0.011448
0.013341
0.013387
0.003973
0.003822
0.009005
0.009035
0.010877
0.011027
0.003210
0.003039
0.013205
0.014525
0.014709
0.013664
0.011868
0.010736
0.011194
0.015499
0.017260
0.017484
0.016086
0.013877
0.011592
0.010614
0.013038
0.014417
0.014446
0.013461
0.011829
0.010746
0.011288
0.015599
0.017252
0.017546
0.016156
0.013896
0.011712
0.010731
0.005156
0.006915
0.009167
0.011218
0.012956
0.013906
0.013951
0.012077
0.010344
0.008350
0.006580
0.005168
0.004039
0.003554
0.004931
0.006840
0.009084
0.011078
0.012823
0.013785
0.013884
0.012025
0.010303
0.008510
0.006638
0.005248
0.004200
0.003657
0.011262
0.010653
0.009708
0.008633
0.007435
0.005930
0.004557
0.004232
0.005601
0.007063
0.008351
0.009680
0.010665
0.011250
0.011170
0.010652
0.009668
0.008621
0.007321
0.005697
0.004423
0.004234
0.005403
0.006963
0.008458
0.009819
0.010806
0.011409
0.011391
0.013311
0.014281
0.013848
0.012391
0.010330
0.008155
0.007118
0.008381
0.013599
0.015720
0.016970
0.016410
0.014603
0.012487
0.009822
0.007553
0.007343
0.011194
0.013104
0.014134
0.013593
0.012387
0.010412
0.008231
0.007118
0.008403
0.013598
0.015747
0.017003
0.016452
0.014709
0.012600
0.009931
0.007615
0.007324
0.009884
0.008447
0.006922
0.005600
0.004466
0.003765
0.003599
0.003546
0.003320
0.003405
0.003983
0.005516
0.007161
0.008784
0.010408
0.011474
0.011780
0.011686
0.009875
0.008479
0.007158
0.005807
0.004523
0.003692
0.003609
0.003659
0.003503
0.003286
0.004056
0.005501
0.007190
0.008846
0.010496
0.011578
0.011844
0.011719
0.009165
0.009142
0.008688
0.008149
0.007233
0.006443
0.005781
0.004412
0.003586
0.003336
0.003956
0.004573
0.005098
0.006008
0.006845
0.007461
0.008098
0.008600
0.009230
0.009234
0.008853
0.008236
0.007305
0.006423
0.005603
0.004375
0.003386
0.003106
0.003976
0.004502
0.005262
0.005979
0.006809
0.007439
0.008078
0.008559
0.009594
0.011924
0.004967
0.009698
0.013173
0.007353
0.009901
0.012351
0.005994
0.006637
0.009297
0.010551
0.010338
0.008578
0.012574
0.015766
0.015607
0.006885
0.008470
0.013453
0.010719
0.013865
0.012821
0.010645
0.009512
0.015168
0.005956
0.008649
0.011068
0.005704
0.007789
0.004451
0.003637
0.006337
0.008135
0.014050
0.007861
0.004308
0.003819
0.009861
0.010971
0.012872
0.008148
0.010681
0.006324
0.004844
0.010829
0.011901
0.011310
0.008558
0.011289
0.007467
0.011122
0.012079
0.006120
0.006037
0.012225
0.009153
0.010264
0.008662
0.014680
0.010133
0.009983
0.013490
0.012153
0.010941
0.013536
0.012439
0.007896
0.013846
0.012008
0.013990
0.013295
0.012697
0.011749
0.008481
0.010534
0.013232
0.006312
0.009895
0.013476
0.012548
0.010836
0.005396
0.009857
0.006582
0.010690
0.014460
0.004931
0.010430
0.013977
0.008267
0.007891
0.007844
0.014202
0.013134
0.010466
0.007556
0.013524
0.012391
0.009250
0.011768
0.011447
0.004070
0.009407
0.006362
0.012117
0.009968
0.004782
0.010204
0.011606
0.010599
0.008919
0.011940
0.006357
0.018135
0.009164
0.017576
0.009021
0.007719
0.018287
0.014444
0.006184
0.016908
0.012134
0.012611
0.016071
0.010433
0.010856
0.009747
0.016578
0.017893
0.016255
0.004750
0.006592
0.014685
0.015795
0.016710
0.014001
0.015340
0.009728
0.016575
0.012696
0.014917
0.013725
0.011541
0.014758
0.011888
0.011604
0.008707
0.007535
0.011837
0.015137
0.009921
0.010971
0.012541
0.008154
0.010700
0.006490
0.004962
0.010758
0.011848
0.011307
0.008622
0.011378
0.007476
0.010981
0.012114
0.006249
0.006030
0.012090
0.009215
0.010357
0.008781
0.014473
0.010132
0.010088
0.013529
0.012230
0.010958
0.013300
0.012249
0.007951
0.013682
0.011769
0.013751
0.013002
0.012559
0.011624
0.008406
0.010552
0.013215
0.006097
0.009762
0.013484
0.012479
0.010748
0.005250
0.009903
0.006379
0.010657
0.014192
0.004816
0.010488
0.013882
0.008315
0.007872
0.007868
0.014013
0.012889
0.010338
0.007600
0.013573
0.012317
0.009223
0.011734
0.011481
0.003895
0.009395
0.006298
0.011964
0.009926
0.004643
0.010133
0.011575
0.010637
0.008882
0.012083
0.006397
0.017989
0.009031
0.017400
0.008777
0.007657
0.018173
0.014292
0.005960
0.016808
0.012025
0.012506
0.015979
0.010357
0.010766
0.009639
0.016420
0.017810
0.016092
0.004533
0.006434
0.014512
0.015626
0.016567
0.013909
0.015147
0.009641
0.016391
0.012476
0.014784
0.013609
0.011424
0.014602
0.011774
0.011449
0.008683
0.007403
0.011730
0.015065
0.009557
0.012086
0.005052
0.009622
0.013360
0.007337
0.009962
0.012279
0.006089
0.006649
0.009176
0.010770
0.010226
0.008520
0.012530
0.015752
0.015364
0.006947
0.008402
0.013302
0.010572
0.013859
0.012792
0.010518
0.009490
0.015136
0.005994
0.008797
0.011044
0.005784
0.007909
0.004566
0.003706
0.006475
0.008160
0.013932
0.007995
0.004375
0.003879
0.015029
0.011761
0.007344
0.008603
0.016819
0.007366
0.015825
0.005305
0.007137
0.015042
0.003488
0.007473
0.012710
0.010219
0.006641
0.013498
0.005088
0.007856
0.017079
0.012992
0.012080
0.017709
0.006897
0.014086
0.006527
0.013867
0.008707
0.016905
0.007303
0.013960
0.009309
0.009628
0.011924
0.013826
0.011416
0.016719
0.010281
0.006103
0.011253
0.007158
0.009009
0.005735
0.009789
0.008167
0.015018
0.007878
0.015841
0.015047
0.016188
0.010650
0.017556
0.012465
0.015681
0.013051
0.007620
0.014609
0.010094
0.006253
0.014329
0.004494
0.004407
0.003973
0.010789
0.008058
0.005293
0.007106
0.013155
0.007736
0.012600
0.004653
0.008004
0.012267
0.003720
0.009761
0.006398
0.005508
0.008238
0.010377
0.006843
0.005183
0.012853
0.009076
0.009108
0.013769
0.009248
0.011054
0.004406
0.009457
0.007237
0.013731
0.009690
0.010862
0.006891
0.006252
0.008710
0.009794
0.007538
0.012425
0.007018
0.008074
0.008906
0.005043
0.008128
0.006713
0.008017
0.006624
0.011466
0.007201
0.012290
0.011269
0.013058
0.007762
0.013847
0.008173
0.011249
0.010607
0.009676
0.006724
0.010731
0.006220
0.011452
0.005507
0.003867
0.004484
0.009636
0.009562
0.006938
0.005522
0.011639
0.004793
0.011808
0.006573
0.003866
0.009913
0.007767
0.012489
0.005848
0.005875
0.013946
0.004750
0.009297
0.005659
0.010419
0.007887
0.005937
0.008741
0.013396
0.004456
0.006150
0.010124
0.004832
0.009729
0.011822
0.003884
0.008589
0.007522
0.010787
0.011065
0.008846
0.012091
0.007106
0.013135
0.004445
0.006573
0.010539
0.005202
0.011604
0.006192
0.013116
0.005868
0.012898
0.008532
0.006745
0.006203
0.010633
0.011306
0.008699
0.010306
0.003314
0.007510
0.012325
0.008131
0.007238
0.007410
0.007330
0.006949
0.005060
0.008614
0.012297
0.003596
0.006410
0.003405
0.006640
0.003874
0.007668
0.005139
0.011945
0.007443
0.013740
0.003535
0.010286
0.007731
0.015433
0.005449
0.004262
0.005086
0.006553
0.003295
0.007510
0.015020
0.006618
0.004301
0.007168
0.003442
0.006962
0.010667
0.010347
0.014303
0.007619
0.011193
0.008651
0.006473
0.006746
0.003483
0.003995
0.012895
0.009518
0.013331
0.005653
0.014689
0.003865
0.009302
0.003031
0.007437
0.005053
0.006371
0.004047
0.006028
0.004769
0.006758
0.007868
0.003470
0.009015
0.004955
0.013174
0.006087
0.012054
0.011826
0.011435
0.008878
0.005789
0.012544
0.007000
0.011784
0.006581
0.011741
0.007211
0.006051
0.008788
0.007385
0.005742
0.005560
0.008906
0.004449
0.005899
0.010030
0.012851
0.013741
0.009523
0.006545
0.009753
0.005100
0.010315
0.013302
0.007207
0.007742
0.009941
0.007360
0.004471
0.003804
0.008628
0.007283
0.008803
0.009957
0.008141
0.012131
0.004906
0.007281
0.006886
0.005696
0.006618
0.004534
0.010364
0.006564
0.011318
0.006538
0.011828
0.012934
0.013361
0.008300
0.009599
0.011223
0.008713
0.010211
0.010533
0.007908
0.004528
0.011631
0.003716
0.003070
0.005084
0.008556
0.011269
0.003605
0.006454
0.003405
0.006690
0.012735
0.003816
0.007712
0.012475
0.005050
0.012000
0.007309
0.003518
0.010366
0.007415
0.015580
0.005492
0.004276
0.005053
0.006602
0.003285
0.007609
0.009875
0.006578
0.004220
0.007223
0.003374
0.006991
0.010696
0.007456
0.010757
0.008518
0.006354
0.006766
0.003448
0.004007
0.013155
0.009139
0.013282
0.005587
0.014653
0.003788
0.009305
0.003029
0.007493
0.005091
0.006432
0.004021
0.006067
0.004715
0.006739
0.007869
0.003297
0.004821
0.008916
0.013693
0.006128
0.009965
0.015212
0.014463
0.015179
0.011913
0.006734
0.008703
0.016959
0.007450
0.015931
0.007177
0.015096
0.007463
0.012840
0.006683
0.010340
0.006710
0.013646
0.005176
0.007691
0.017202
0.013139
0.012184
0.017802
0.006940
0.014216
0.004785
0.014012
0.008812
0.016992
0.007319
0.014023
0.009417
0.005708
0.003784
0.009248
0.012026
0.013986
0.011428
0.016859
0.010402
0.006172
0.011369
0.006840
0.008839
0.005755
0.009903
0.008235
0.015165
0.007975
0.016001
0.015205
0.016274
0.010766
0.017679
0.012580
0.015816
0.013107
0.007634
0.010062
0.014732
0.004455
0.014447
0.003597
0.003208
0.006465
0.010715
0.012326
0.007258
0.004889
0.007739
0.004653
0.012568
0.009790
0.003653
0.011384
0.011431
0.008893
0.010424
0.009114
0.007053
0.013606
0.010047
0.005600
0.006575
0.008471
0.005109
0.007219
0.005424
0.011267
0.008514
0.009158
0.004196
0.008040
0.004166
0.012238
0.011562
0.010612
0.009601
0.009797
0.006424
0.007220
0.011463
0.007814
0.012808
0.011478
0.012940
0.008976
0.008911
0.007663
0.007387
0.006105
0.006553
0.006575
0.007329
0.004922
0.007975
0.007571
0.003492
0.009742
0.008633
0.009402
0.013508
0.008151
0.013800
0.010517
0.012887
0.003949
0.008849
0.012241
0.007323
0.009181
0.003651
0.004718
0.012523
0.005191
0.003340
0.009444
0.012339
0.009563
0.009699
0.011566
0.012084
0.008930
0.010905
0.007192
0.006135
0.016557
0.013784
0.013332
0.012306
0.012258
0.013141
0.012153
0.012577
0.012709
0.010818
0.004657
0.006931
0.009829
0.015809
0.018488
0.010938
0.013056
0.015942
0.012942
0.012235
0.010132
0.007855
0.007544
0.014794
0.010972
0.007933
0.012005
0.012147
0.004901
0.012737
0.012489
0.009208
0.011474
0.003645
0.005117
0.009164
0.007102
0.015337
0.013224
0.011511
0.013132
0.005515
0.005263
0.004108
0.009323
0.014461
0.004347
0.006693
0.011865
0.013330
0.012897
0.011994
0.004495
0.007633
0.010790
0.005840
0.004835
0.010769
0.011232
0.006685
0.008698
0.010862
0.012397
0.011481
0.013606
0.014209
0.017651
0.015318
0.016210
0.009854
0.013897
0.016944
0.011805
0.007674
0.009424
0.006490
0.004334
0.004966
0.014242
0.006918
0.011900
0.004696
