# vtk DataFile Version 2.0
Unstructured Grid Example
ASCII
DATASET UNSTRUCTURED_GRID
POINTS 1108 float
0.997508 -0.000954 0.023524 
-0.997507 0.000925 -0.023302 
-0.001221 0.986352 0.003593 
0.001055 -0.986044 -0.003734 
0.023148 0.003618 1.016304 
-0.023049 -0.003750 -1.016172 
1.197621 -0.000663 0.015588 
-1.197659 0.000423 -0.015601 
-0.000865 1.186781 0.002437 
0.000796 -1.186974 -0.002644 
0.015461 0.002441 1.215344 
-0.015542 -0.002532 -1.215427 
0.977976 0.192278 0.023658 
0.920550 0.377611 0.023032 
0.827463 0.548097 0.021346 
0.702698 0.697501 0.019184 
0.551319 0.819835 0.015579 
0.379282 0.910742 0.012047 
0.192787 0.966921 0.008048 
-0.195168 0.968175 -0.000609 
-0.381505 0.912572 -0.005240 
-0.553891 0.821941 -0.009970 
-0.704904 0.699791 -0.014083 
-0.828766 0.550446 -0.017159 
-0.921712 0.379819 -0.020286 
-0.978477 0.194100 -0.022131 
-0.977962 -0.192468 -0.023462 
-0.920856 -0.377795 -0.022840 
-0.828059 -0.548365 -0.021190 
-0.703259 -0.697660 -0.019017 
-0.551613 -0.819824 -0.015783 
-0.379424 -0.910716 -0.012370 
-0.192803 -0.967007 -0.007993 
0.194836 -0.967795 0.000623 
0.381446 -0.912097 0.005177 
0.553788 -0.821765 0.010218 
0.704946 -0.699755 0.014024 
0.828801 -0.550386 0.017181 
0.921802 -0.379866 0.020335 
0.978464 -0.194174 0.022191 
0.022822 -0.190587 0.995055 
0.021800 -0.376897 0.935130 
0.019674 -0.547764 0.838994 
0.017028 -0.697092 0.710945 
0.013848 -0.818997 0.556854 
0.009652 -0.909969 0.381592 
0.005377 -0.966174 0.192449 
-0.003487 -0.968904 -0.199704 
-0.007869 -0.915057 -0.389188 
-0.012082 -0.826028 -0.564691 
-0.015584 -0.704885 -0.718998 
-0.018473 -0.555846 -0.846035 
-0.020935 -0.384578 -0.940432 
-0.022313 -0.198062 -0.997837 
-0.022792 0.190647 -0.995003 
-0.021555 0.376922 -0.934705 
-0.019846 0.547710 -0.838938 
-0.017130 0.697140 -0.711139 
-0.013806 0.819110 -0.556978 
-0.009813 0.909998 -0.381735 
-0.005580 0.966192 -0.192525 
0.003293 0.968892 0.199635 
0.007958 0.914928 0.389500 
0.012090 0.826095 0.564614 
0.015711 0.704787 0.718889 
0.018641 0.555781 0.846172 
0.021006 0.384450 0.940167 
0.022464 0.197928 0.997666 
0.987475 -0.000228 0.220640 
0.939120 0.000573 0.411769 
0.853561 0.001112 0.587696 
0.732646 0.001692 0.741430 
0.582187 0.002552 0.865609 
0.408660 0.002973 0.954576 
0.219424 0.003279 1.005015 
-0.172235 0.003605 0.987834 
-0.359072 0.003950 0.921565 
-0.531335 0.003455 0.821177 
-0.682608 0.003225 0.691954 
-0.808453 0.003025 0.536732 
-0.905736 0.002109 0.362047 
-0.969495 0.001579 0.173225 
-0.987506 0.000180 -0.220460 
-0.938930 -0.000557 -0.411557 
-0.853143 -0.001044 -0.587600 
-0.732360 -0.001682 -0.741308 
-0.581990 -0.002357 -0.865965 
-0.408673 -0.002906 -0.954624 
-0.219367 -0.003343 -1.004987 
0.172431 -0.003819 -0.987836 
0.359172 -0.003947 -0.921643 
0.531580 -0.003593 -0.821303 
0.682785 -0.003293 -0.691937 
0.808431 -0.002989 -0.536773 
0.905713 -0.002270 -0.361918 
0.969719 -0.001688 -0.173176 
1.182552 0.185890 0.015640 
1.137991 0.367661 0.015567 
1.065024 0.540221 0.014817 
0.966286 0.698990 0.014153 
0.843811 0.840036 0.012913 
0.700577 0.960743 0.010717 
0.540601 1.057445 0.009104 
0.367602 1.128274 0.006944 
0.185751 1.171871 0.005096 
-0.187421 1.172719 -0.000212 
-0.369237 1.130135 -0.002997 
-0.542475 1.059305 -0.004741 
-0.702291 0.962946 -0.006750 
-0.845790 0.842160 -0.008900 
-0.968400 0.700439 -0.011419 
-1.066472 0.541778 -0.012642 
-1.139188 0.368881 -0.013822 
-1.183159 0.186962 -0.014838 
-1.182646 -0.185880 -0.015711 
-1.138289 -0.367777 -0.015532 
-1.065499 -0.540377 -0.014849 
-0.966752 -0.699278 -0.014044 
-0.843829 -0.840244 -0.012520 
-0.700597 -0.960940 -0.010666 
-0.540726 -1.057425 -0.008999 
-0.367677 -1.128342 -0.006983 
-0.185767 -1.171805 -0.005117 
0.187227 -1.172627 0.000162 
0.369068 -1.129747 0.002916 
0.542217 -1.059126 0.004815 
0.702134 -0.962801 0.006897 
0.845679 -0.842256 0.009004 
0.968362 -0.700503 0.011641 
1.066474 -0.541835 0.012713 
1.139211 -0.368948 0.013834 
1.183140 -0.187090 0.014907 
-0.002021 -1.173661 -0.190578 
-0.004111 -1.132214 -0.374066 
-0.006485 -1.063308 -0.549469 
-0.008212 -0.968063 -0.712325 
-0.010485 -0.848463 -0.857738 
-0.012519 -0.707484 -0.982815 
-0.013406 -0.547725 -1.083733 
-0.014340 -0.373939 -1.157373 
-0.015144 -0.190491 -1.201513 
-0.015295 0.185349 -1.199069 
-0.014887 0.368373 -1.152266 
-0.014135 0.541088 -1.077213 
-0.013038 0.699812 -0.975504 
-0.011477 0.840874 -0.850799 
-0.009268 0.961112 -0.704808 
-0.007566 1.057135 -0.543078 
-0.005867 1.127429 -0.368802 
-0.003125 1.171274 -0.185218 
0.002130 1.173864 0.190693 
0.004075 1.132041 0.374245 
0.006004 1.063642 0.548916 
0.008170 0.968148 0.712327 
0.010486 0.848367 0.857784 
0.012743 0.707463 0.982515 
0.013517 0.547675 1.083657 
0.014458 0.373917 1.157163 
0.015210 0.190569 1.201448 
0.015452 -0.185482 1.199039 
0.014889 -0.368244 1.152539 
0.014118 -0.541244 1.077259 
0.013088 -0.699911 0.975257 
0.011408 -0.840911 0.850614 
0.009214 -0.961036 0.704660 
0.007533 -1.057036 0.542983 
0.005823 -1.127403 0.368671 
0.003061 -1.171215 0.184964 
-1.174959 0.001018 0.172841 
-1.124699 0.001122 0.354852 
-1.048226 0.001709 0.527615 
-0.948374 0.001690 0.687616 
-0.826878 0.002402 0.832611 
-0.684765 0.002407 0.958167 
-0.526705 0.002454 1.060951 
-0.354896 0.002378 1.140367 
-0.172913 0.002539 1.192376 
0.204955 0.002190 1.208228 
0.390660 0.002165 1.170124 
0.567941 0.001897 1.101914 
0.730886 0.001520 1.004112 
0.873956 0.001263 0.879603 
0.994832 0.001043 0.733546 
1.089658 0.000442 0.569208 
1.155121 0.000018 0.391192 
1.190973 -0.000282 0.204656 
1.175028 -0.001095 -0.172598 
1.124569 -0.001434 -0.354931 
1.048104 -0.001737 -0.527612 
0.948531 -0.001825 -0.687695 
0.826831 -0.002342 -0.832721 
0.684720 -0.002261 -0.958239 
0.526761 -0.002418 -1.061084 
0.355112 -0.002466 -1.140318 
0.172908 -0.002477 -1.192507 
-0.204816 -0.002147 -1.208085 
-0.390429 -0.002117 -1.170128 
-0.567953 -0.001992 -1.102121 
-0.730786 -0.001889 -1.003687 
-0.873820 -0.001250 -0.879423 
-0.994564 -0.000992 -0.733333 
-1.089301 -0.000378 -0.569005 
-1.154964 0.000015 -0.391112 
-1.190978 0.000246 -0.204607 
0.801704 -0.392136 -0.398490 
0.405147 -0.784943 -0.439494 
0.373154 -0.376389 -0.836223 
0.877667 -0.295667 -0.318330 
0.288229 -0.883999 -0.333604 
0.660624 -0.333166 -0.636653 
0.541360 -0.623521 -0.532291 
0.863594 -0.475773 -0.090908 
0.163599 -0.616933 -0.770611 
0.589397 -0.171967 -0.760391 
0.853866 -0.155993 -0.441669 
0.195482 -0.844092 -0.483188 
0.940252 -0.138079 -0.245325 
0.783706 -0.289965 -0.500990 
0.670485 -0.635960 -0.331472 
0.457699 -0.851355 -0.195518 
0.621592 -0.748042 -0.163752 
0.507182 -0.473425 -0.696655 
0.774389 -0.142406 -0.569455 
0.545825 -0.744187 -0.340695 
0.978581 -0.122666 -0.091740 
0.764318 -0.609819 -0.137206 
0.146814 -0.937225 -0.279838 
0.929489 -0.303966 -0.139283 
0.718079 -0.464100 -0.473032 
0.265010 -0.939051 -0.150931 
0.527616 -0.299470 -0.770953 
0.318677 -0.699257 -0.625435 
0.820924 -0.463343 -0.273787 
0.475461 -0.182317 -0.841215 
0.133338 -0.752922 -0.641382 
0.175778 -0.479836 -0.862186 
0.156046 -0.319220 -0.940076 
0.333266 -0.553024 -0.752649 
0.618999 -0.476199 -0.589915 
0.122424 -0.971564 -0.127060 
0.431000 -0.596551 -0.656934 
0.307220 -0.217214 -0.920540 
0.182805 -0.135449 -0.976754 
0.481314 0.570001 -0.626141 
0.490572 0.769305 -0.346246 
0.787981 0.363237 -0.435674 
0.378751 0.458078 -0.779113 
0.339948 0.870219 -0.292181 
0.268316 0.305667 -0.902858 
0.147523 0.158581 -0.978591 
0.738011 0.209250 -0.592708 
0.652739 0.525346 -0.491006 
0.494108 0.832711 -0.156856 
0.577537 0.169747 -0.765852 
0.171042 0.862745 -0.436879 
0.148136 0.466232 -0.865470 
0.538665 0.669139 -0.456846 
0.143893 0.938765 -0.250977 
0.366316 0.133751 -0.906306 
0.101709 0.316298 -0.945188 
0.611390 0.689415 -0.319781 
0.096553 0.615032 -0.773055 
0.151573 0.742297 -0.630587 
0.281997 0.612532 -0.714300 
0.845962 0.477237 -0.150256 
0.586004 0.383220 -0.673462 
0.360272 0.751446 -0.509595 
0.744432 0.542395 -0.317818 
0.121329 0.970817 -0.105521 
0.282932 0.931808 -0.130890 
0.698489 0.678689 -0.130075 
0.931979 0.142668 -0.263969 
0.449867 0.296929 -0.816518 
0.838573 0.401174 -0.296310 
0.855792 0.164890 -0.429259 
0.928509 0.286926 -0.155192 
0.878759 0.276809 -0.320011 
0.974119 0.125364 -0.109332 
0.703143 0.374423 -0.552909 
0.483088 0.463552 0.788489 
0.461289 0.800545 0.401464 
0.844819 0.411758 0.399752 
0.356771 0.317943 0.918007 
0.308738 0.897301 0.309294 
0.914345 0.336345 0.281758 
0.970308 0.167679 0.236539 
0.566874 0.632837 0.568753 
0.128712 0.482941 0.889653 
0.776215 0.168872 0.670257 
0.468630 0.163920 0.914557 
0.430904 0.875091 0.197432 
0.868746 0.469066 0.191950 
0.286429 0.145277 0.982174 
0.254752 0.944987 0.152363 
0.941123 0.319454 0.148129 
0.639397 0.162945 0.808360 
0.540719 0.295779 0.838227 
0.336133 0.630416 0.732147 
0.775819 0.614733 0.135593 
0.670956 0.716939 0.189942 
0.608424 0.497334 0.668369 
0.207839 0.751954 0.645446 
0.767839 0.575294 0.322087 
0.638884 0.682545 0.389231 
0.404082 0.719021 0.595711 
0.555433 0.796458 0.240143 
0.111081 0.973764 0.129851 
0.135882 0.127001 1.007573 
0.483921 0.596779 0.681169 
0.168860 0.613895 0.794268 
0.719503 0.507960 0.526252 
0.665361 0.353414 0.713779 
0.180465 0.312709 0.960832 
0.169854 0.938971 0.277790 
0.804093 0.321768 0.562513 
0.861082 0.142228 0.555521 
0.225887 0.859343 0.466501 
0.901952 0.233904 0.428462 
0.277877 0.480036 0.865188 
0.520164 -0.780917 0.355022 
0.352643 -0.369914 0.890947 
0.335493 -0.863896 0.367072 
0.170697 -0.460577 0.887627 
0.539348 -0.156690 0.875046 
0.430082 -0.874583 0.196142 
0.624725 -0.544731 0.599853 
0.291084 -0.171722 0.973031 
0.231509 -0.944415 0.182014 
0.917666 -0.371842 0.184775 
0.786973 -0.399872 0.524065 
0.740687 -0.654544 0.157788 
0.886661 -0.188134 0.487290 
0.963426 -0.180939 0.259875 
0.530978 -0.320845 0.827948 
0.579372 -0.672403 0.488041 
0.614016 -0.767262 0.176175 
0.716703 -0.633137 0.322782 
[...]
POINT_DATA 1108
SCALARS u float 1
LOOKUP_TABLE default
0.023674
0.023453
0.014165
0.014485
0.028544
0.028406
0.015783
0.015781
0.013469
0.013315
0.021919
0.022045
0.023989
0.023818
0.022968
0.021903
0.019904
0.018147
0.016195
0.012625
0.012518
0.013893
0.016022
0.018110
0.020601
0.022273
0.023776
0.023553
0.022640
0.021580
0.020009
0.018355
0.016092
0.013008
0.012929
0.014204
0.015981
0.018143
0.020634
0.022331
0.027290
0.025205
0.022464
0.020124
0.018681
0.016966
0.015791
0.013214
0.013493
0.016087
0.019729
0.023526
0.026755
0.028239
0.027228
0.024799
0.022614
0.020225
0.018584
0.017026
0.015833
0.013151
0.013781
0.016027
0.019775
0.023742
0.026639
0.028242
0.026412
0.032842
0.039004
0.042815
0.043364
0.040323
0.034496
0.024188
0.024052
0.026556
0.028987
0.029896
0.027559
0.024659
0.026245
0.032565
0.038688
0.042547
0.043514
0.040363
0.034442
0.024036
0.023946
0.026302
0.028854
0.029884
0.027683
0.024608
0.015972
0.016219
0.016059
0.016163
0.016159
0.015463
0.015452
0.015080
0.014429
0.012512
0.011638
0.011220
0.010811
0.011281
0.012661
0.013280
0.014111
0.015000
0.016028
0.016105
0.015928
0.015829
0.015730
0.015294
0.015373
0.015024
0.014496
0.012610
0.012013
0.011465
0.011053
0.011337
0.012844
0.013334
0.014111
0.015066
0.012083
0.010460
0.009938
0.011126
0.013956
0.017470
0.019983
0.021789
0.022411
0.020765
0.018670
0.016661
0.014916
0.013981
0.013433
0.014350
0.015166
0.014515
0.011936
0.010652
0.009168
0.011076
0.013988
0.017426
0.019996
0.021709
0.022419
0.020846
0.018851
0.016635
0.014848
0.013875
0.013458
0.014428
0.015191
0.014604
0.018107
0.023038
0.027168
0.028651
0.026979
0.024276
0.020030
0.016126
0.016639
0.028825
0.035086
0.040116
0.041989
0.040172
0.037055
0.031855
0.024635
0.017885
0.018274
0.023095
0.027265
0.028488
0.026947
0.024263
0.019921
0.015929
0.016691
0.028625
0.034956
0.040297
0.041608
0.039947
0.036718
0.031469
0.024481
0.017840
0.024133
0.015267
0.021125
0.024204
0.013389
0.025212
0.019404
0.019460
0.018698
0.025983
0.027427
0.014234
0.024848
0.026349
0.019595
0.014302
0.016392
0.021178
0.028593
0.016910
0.023002
0.018253
0.012938
0.021919
0.023621
0.012688
0.023845
0.016478
0.021743
0.023905
0.016435
0.020793
0.022808
0.018574
0.022810
0.013002
0.018575
0.022310
0.023513
0.027549
0.024908
0.029982
0.025715
0.021958
0.024049
0.024295
0.030607
0.029096
0.022055
0.028439
0.020597
0.022800
0.027489
0.018567
0.024818
0.023978
0.026222
0.021644
0.021389
0.024056
0.025341
0.029573
0.024666
0.027969
0.016633
0.018879
0.023905
0.026795
0.026953
0.027845
0.029831
0.025361
0.028261
0.024424
0.030343
0.037082
0.020882
0.030552
0.037678
0.016204
0.027714
0.027412
0.029332
0.028154
0.040898
0.041610
0.017476
0.024657
0.037087
0.015505
0.024959
0.043647
0.041351
0.029052
0.022371
0.021356
0.035343
0.022366
0.025622
0.024849
0.025592
0.019535
0.013893
0.032106
0.031854
0.025946
0.032295
0.039711
0.032511
0.014268
0.036795
0.038042
0.017417
0.033050
0.032586
0.017201
0.033072
0.015107
0.026612
0.040992
0.013643
0.029335
0.035207
0.013530
0.022635
0.032059
0.017772
0.034257
0.026813
0.037366
0.022440
0.015759
0.021326
0.031143
0.029828
0.018609
0.015782
0.019286
0.020206
0.025125
0.039624
0.016529
0.030703
0.026783
0.024729
0.036124
0.022937
0.022502
0.027406
0.041455
0.038188
0.028196
0.013917
0.027738
0.025073
0.029633
0.026055
0.022216
0.024017
0.024182
0.030445
0.029265
0.022292
0.028811
0.020606
0.022944
0.027068
0.018390
0.024920
0.023971
0.026200
0.021526
0.021365
0.024088
0.024860
0.029716
0.024719
0.027790
0.016625
0.018993
0.023701
0.026571
0.026948
0.027897
0.029701
0.025024
0.028068
0.024344
0.030535
0.036397
0.020648
0.030007
0.037720
0.016351
0.027510
0.027266
0.029414
0.028035
0.040858
0.041562
0.017568
0.024432
0.036942
0.015423
0.024743
0.043185
0.041260
0.028640
0.022028
0.021435
0.035185
0.021795
0.025494
0.024809
0.025492
0.019628
0.014044
0.032130
0.031154
0.025895
0.032093
0.039357
0.032615
0.014523
0.036455
0.037645
0.017526
0.033004
0.032571
0.017064
0.032994
0.015056
0.026653
0.041230
0.013474
0.029240
0.035202
0.013348
0.022598
0.031852
0.017730
0.034079
0.026650
0.037195
0.022505
0.015487
0.021196
0.030946
0.029648
0.018500
0.015819
0.019316
0.020229
0.025070
0.039502
0.016554
0.030631
0.026577
0.024424
0.035957
0.022717
0.022453
0.027241
0.041366
0.038271
0.027937
0.013740
0.024143
0.015262
0.021280
0.024314
0.013455
0.025220
0.019384
0.019495
0.018728
0.026109
0.027478
0.013793
0.024694
0.026338
0.019529
0.014095
0.015948
0.021218
0.028625
0.016791
0.022905
0.018178
0.012942
0.021964
0.023609
0.012493
0.023972
0.016695
0.021705
0.024075
0.016534
0.020913
0.022900
0.018749
0.022789
0.012842
0.018750
0.022403
0.023573
0.017554
0.026705
0.028167
0.020040
0.010384
0.019799
0.011078
0.029893
0.015929
0.012424
0.026984
0.036379
0.014722
0.019654
0.033466
0.011930
0.039815
0.018634
0.011944
0.017985
0.013794
0.009935
0.026001
0.012899
0.023488
0.022722
0.015665
0.011023
0.019584
0.013204
0.029757
0.032108
0.021658
0.021059
0.027607
0.011766
0.024770
0.038443
0.012791
0.036591
0.023858
0.040533
0.014833
0.031450
0.012119
0.026113
0.010784
0.013273
0.010252
0.017350
0.010051
0.024279
0.016826
0.013371
0.016138
0.015878
0.030746
0.034657
0.011293
0.036590
0.022472
0.032786
0.025951
0.026226
0.019279
0.020008
0.023995
0.018503
0.022180
0.016495
0.016355
0.017895
0.016500
0.029160
0.019458
0.017947
0.017578
0.029183
0.023490
0.015503
0.024952
0.023350
0.019223
0.019870
0.017488
0.025510
0.015992
0.027181
0.018163
0.019377
0.016363
0.020413
0.023305
0.022219
0.027174
0.028531
0.025363
0.027465
0.023007
0.015771
0.028712
0.018829
0.026068
0.015731
0.027275
0.021096
0.029456
0.020701
0.027201
0.022272
0.019403
0.021228
0.023376
0.025387
0.028333
0.017003
0.014702
0.023579
0.029599
0.021330
0.018736
0.018561
0.016526
0.015768
0.035278
0.022786
0.012087
0.035238
0.024970
0.032359
0.021221
0.011186
0.031512
0.020229
0.012258
0.016208
0.022188
0.016412
0.016107
0.024326
0.013305
0.012137
0.033639
0.039507
0.041471
0.034939
0.016969
0.026833
0.010845
0.029486
0.037282
0.027114
0.016967
0.027289
0.016192
0.021537
0.019116
0.024580
0.027047
0.026640
0.035130
0.014640
0.019018
0.014185
0.014402
0.015401
0.014017
0.028682
0.019812
0.031424
0.020968
0.038664
0.041393
0.038750
0.030562
0.028848
0.033379
0.016622
0.026393
0.028737
0.022772
0.012318
0.039410
0.012987
0.010172
0.013096
0.022232
0.016801
0.012613
0.015244
0.021826
0.014975
0.019569
0.015958
0.019242
0.012321
0.016558
0.011895
0.014933
0.014206
0.015791
0.009968
0.013037
0.025032
0.020183
0.021246
0.026834
0.016400
0.015915
0.012547
0.019418
0.016295
0.023767
0.018023
0.016266
0.014215
0.010851
0.011954
0.014280
0.016803
0.019486
0.016554
0.022339
0.016038
0.013186
0.013387
0.011812
0.014031
0.010927
0.013250
0.013346
0.018823
0.013970
0.019628
0.024393
0.026923
0.017945
0.024566
0.018163
0.022059
0.016226
0.018654
0.019524
0.014894
0.011957
0.024984
0.011797
0.012130
0.020020
0.031296
0.034520
0.021891
0.011135
0.021148
0.011459
0.016817
0.013213
0.019502
0.038563
0.040359
0.024899
0.012985
0.034220
0.023754
0.041361
0.014740
0.019399
0.016101
0.013202
0.010491
0.026752
0.038395
0.026368
0.017166
0.012525
0.011682
0.020139
0.034096
0.028750
0.033293
0.036852
0.027289
0.025830
0.031683
0.014983
0.026690
0.014795
0.039112
0.038620
0.029287
0.041480
0.018923
0.033264
0.015989
0.027726
0.011425
0.014676
0.014525
0.019601
0.012315
0.020973
0.026750
0.013086
0.016580
0.033339
0.020763
0.033650
0.013925
0.029150
0.026090
0.022187
0.016714
0.012535
0.015101
0.021791
0.014913
0.019577
0.012260
0.015915
0.019331
0.012389
0.012134
0.016577
0.011494
0.014209
0.015905
0.009892
0.013141
0.025022
0.020040
0.021079
0.026801
0.016372
0.015914
0.010906
0.019401
0.016150
0.023834
0.018015
0.016280
0.014670
0.013869
0.017144
0.019563
0.016342
0.022331
0.015842
0.013236
0.013702
0.011574
0.015613
0.010819
0.013466
0.013170
0.018834
0.013845
0.019699
0.024298
0.026829
0.017749
0.024537
0.018042
0.022072
0.016288
0.018645
0.014620
0.019625
0.013733
0.024888
0.010902
0.012375
0.012190
0.017519
0.026704
0.030433
0.020164
0.010444
0.019901
0.011212
0.015988
0.012607
0.036583
0.014734
0.037872
0.019608
0.033665
0.011922
0.039478
0.018611
0.012049
0.018117
0.013850
0.010057
0.026231
0.012920
0.036108
0.022693
0.015692
0.011165
0.019676
0.013320
0.029377
0.023965
0.032325
0.033174
0.021877
0.021062
0.027882
0.011735
0.024999
0.038626
0.012750
0.035099
0.023873
0.040581
0.014748
0.031667
0.012092
0.026362
0.010751
0.013411
0.010410
0.017411
0.010132
0.024456
0.016747
0.013494
0.016225
0.031169
0.015920
0.030817
0.011380
0.026780
0.025001
0.023444
0.027654
0.026569
0.020069
0.017232
0.018490
0.016108
0.022948
0.016279
0.017060
0.018900
0.023093
0.028642
0.029267
0.019533
0.023938
0.018688
0.028877
0.019861
0.021511
0.017330
0.015726
0.018170
0.017761
0.026475
0.027049
0.017565
0.015790
0.016448
0.015937
0.027893
0.026718
0.029526
0.028325
0.026504
0.022087
0.023124
0.018558
0.026846
0.023580
0.028869
0.018747
0.029242
0.022836
0.025182
0.021343
0.020172
0.019100
0.015949
0.020004
0.017052
0.025358
0.025772
0.018051
0.014773
0.027137
0.024837
0.023462
0.015687
0.019116
0.023427
0.017758
0.020661
0.021174
0.033003
0.023274
0.025415
0.029060
0.028426
0.010538
0.005470
0.021094
0.019709
0.023924
0.021199
0.034800
0.020197
0.021748
0.023366
0.035406
0.026949
0.004881
0.013646
0.016905
0.016250
0.020451
0.032841
0.027907
0.031264
0.027157
0.029070
0.023730
0.035194
0.033890
0.030584
0.029190
0.018957
0.035909
0.035235
0.013648
0.027841
0.012401
0.026969
0.040426
0.022321
0.028693
0.023549
0.038628
0.016355
0.016506
0.034889
0.017780
0.020882
0.032304
0.038918
0.026963
0.026197
0.023869
0.025892
0.018909
0.026379
0.030898
0.026394
0.026632
0.023017
0.024787
0.025475
0.026634
0.033583
0.039769
0.020518
0.027956
0.033075
0.033650
0.033715
0.037557
0.022774
0.027359
0.030965
0.037317
0.033492
0.031940
0.029377
0.034112
0.032200
0.039552
0.035298
0.028553
0.014926
0.016430
0.012958
0.021232
0.015204
0.014778
0.025733
0.029014
0.024518
0.025317
0.027066
0.027841
0.013310
0.010204
0.026407
0.007955
