# vtk DataFile Version 2.0
Unstructured Grid Example
ASCII
DATASET UNSTRUCTURED_GRID
POINTS 1108 float
0.980402 0.014005 0.005533 
-0.980411 -0.013969 -0.005429 
0.013644 1.019358 -0.018815 
-0.013956 -1.019724 0.018874 
0.005602 -0.018576 1.000102 
-0.005507 0.018854 -1.000230 
1.181543 0.009414 0.003606 
-1.181237 -0.009046 -0.003896 
0.009390 1.218301 -0.012491 
-0.008952 -1.218726 0.012348 
0.003834 -0.012465 1.200031 
-0.003951 0.012454 -1.200258 
0.967210 0.210468 0.001885 
0.917216 0.400159 -0.002109 
0.831350 0.575850 -0.005615 
0.712381 0.730853 -0.009188 
0.564621 0.857418 -0.013035 
0.394229 0.949695 -0.015373 
0.207832 1.004394 -0.017423 
-0.179855 0.994043 -0.019505 
-0.364777 0.930105 -0.019526 
-0.534451 0.830851 -0.018660 
-0.683003 0.701285 -0.017082 
-0.805125 0.546158 -0.015011 
-0.897478 0.371097 -0.012092 
-0.956767 0.182291 -0.008861 
-0.967373 -0.210455 -0.001921 
-0.917486 -0.400111 0.001933 
-0.831493 -0.575713 0.005561 
-0.712366 -0.730568 0.009114 
-0.564574 -0.857569 0.012531 
-0.394194 -0.950189 0.015095 
-0.207938 -1.004800 0.017401 
0.179758 -0.994202 0.019504 
0.364727 -0.930406 0.019658 
0.534503 -0.831042 0.018805 
0.682849 -0.701181 0.017381 
0.805249 -0.546063 0.015236 
0.897610 -0.370950 0.012335 
0.957157 -0.182220 0.009021 
0.002766 -0.216303 0.988338 
-0.000162 -0.407744 0.938293 
-0.003367 -0.584107 0.851077 
-0.005614 -0.738743 0.729174 
-0.008243 -0.864115 0.578746 
-0.010465 -0.954689 0.404981 
-0.012398 -1.006678 0.215535 
-0.014756 -0.992476 -0.177130 
-0.015001 -0.927649 -0.364809 
-0.014756 -0.828289 -0.537927 
-0.013725 -0.698828 -0.689863 
-0.012460 -0.543746 -0.815452 
-0.010355 -0.368343 -0.911367 
-0.008158 -0.178496 -0.973965 
-0.002737 0.216451 -0.988498 
0.000186 0.407797 -0.938188 
0.003029 0.584188 -0.851066 
0.005722 0.738610 -0.729528 
0.008304 0.863889 -0.578812 
0.010534 0.954428 -0.404952 
0.012368 1.006525 -0.215542 
0.014579 0.992289 0.177181 
0.014642 0.927199 0.365115 
0.014202 0.828247 0.537942 
0.013475 0.698810 0.690190 
0.011843 0.543904 0.815816 
0.010452 0.368578 0.911419 
0.008271 0.178656 0.973912 
0.964095 0.009702 0.199675 
0.910885 0.005452 0.386738 
0.822670 0.000697 0.558948 
0.701471 -0.003242 0.710322 
0.553330 -0.007923 0.834933 
0.383527 -0.012101 0.926740 
0.198265 -0.015633 0.982635 
-0.186859 -0.020743 0.978288 
-0.371782 -0.022517 0.919133 
-0.541043 -0.022943 0.824383 
-0.689488 -0.022736 0.698783 
-0.811565 -0.021884 0.546886 
-0.902630 -0.019768 0.374792 
-0.959771 -0.017144 0.188489 
-0.964020 -0.009686 -0.199551 
-0.910756 -0.005394 -0.386559 
-0.822227 -0.001223 -0.558836 
-0.701214 0.002981 -0.710582 
-0.552855 0.007516 -0.834914 
-0.383407 0.012227 -0.926554 
-0.198129 0.015863 -0.982444 
0.187377 0.020716 -0.978955 
0.371868 0.022605 -0.919621 
0.540987 0.023217 -0.824685 
0.689292 0.023038 -0.698764 
0.811197 0.022127 -0.546737 
0.902622 0.020024 -0.374569 
0.959885 0.017184 -0.188209 
1.171843 0.197030 0.001502 
1.133975 0.381598 -0.000351 
1.067756 0.558145 -0.002226 
0.974590 0.721893 -0.004140 
0.856481 0.868095 -0.006166 
0.715681 0.993712 -0.008435 
0.555767 1.094442 -0.009293 
0.381274 1.166027 -0.010917 
0.197256 1.207779 -0.011670 
-0.178295 1.198569 -0.012803 
-0.359951 1.148352 -0.013036 
-0.531187 1.069888 -0.012860 
-0.688382 0.966368 -0.012484 
-0.828166 0.840760 -0.011608 
-0.947095 0.695236 -0.010288 
-1.043717 0.533700 -0.008678 
-1.115918 0.360846 -0.007599 
-1.162105 0.178482 -0.005745 
-1.171974 -0.196960 -0.001563 
-1.134012 -0.381768 0.000515 
-1.067971 -0.558107 0.002405 
-0.974555 -0.721984 0.004214 
-0.856281 -0.868063 0.006205 
-0.715594 -0.993768 0.008365 
-0.555863 -1.094633 0.009288 
-0.381394 -1.166642 0.010889 
-0.197445 -1.208218 0.011725 
0.178316 -1.198650 0.012948 
0.360006 -1.148533 0.013077 
0.531319 -1.070023 0.012824 
0.688506 -0.966406 0.012415 
0.828099 -0.840539 0.011597 
0.947074 -0.695031 0.010374 
1.043817 -0.533560 0.008796 
1.116089 -0.360736 0.007686 
1.162418 -0.178241 0.005747 
-0.009707 -1.197108 -0.176490 
-0.009826 -1.146212 -0.359282 
-0.009897 -1.067810 -0.531779 
-0.009844 -0.964783 -0.690795 
-0.009082 -0.839250 -0.833426 
-0.007989 -0.694056 -0.955434 
-0.007425 -0.533227 -1.054728 
-0.006408 -0.359404 -1.129999 
-0.005170 -0.176258 -1.179039 
-0.001840 0.202081 -1.192051 
-0.000761 0.388308 -1.154197 
0.001171 0.566287 -1.087597 
0.002270 0.730942 -0.992489 
0.004342 0.877037 -0.871420 
0.005277 1.001856 -0.727676 
0.006491 1.100835 -0.565212 
0.007516 1.170109 -0.388224 
0.008425 1.209807 -0.202258 
0.009568 1.196746 0.176565 
0.009853 1.145700 0.359269 
0.010302 1.067827 0.531507 
0.009625 0.964941 0.690712 
0.008935 0.839491 0.833509 
0.008339 0.693982 0.955718 
0.007252 0.532978 1.055193 
0.006360 0.359233 1.130071 
0.005079 0.176211 1.179058 
0.002092 -0.202228 1.191730 
0.000605 -0.388286 1.154340 
-0.000811 -0.566347 1.087652 
-0.001937 -0.730838 0.991788 
-0.004273 -0.877115 0.871182 
-0.005322 -1.001946 0.727742 
-0.006451 -1.101061 0.565312 
-0.007454 -1.170324 0.388218 
-0.008416 -1.210022 0.202241 
-1.165040 -0.011015 0.182163 
-1.120538 -0.012321 0.363533 
-1.049372 -0.013826 0.536206 
-0.952805 -0.014853 0.696113 
-0.833129 -0.015404 0.839549 
-0.692822 -0.015267 0.962334 
-0.535076 -0.015186 1.062484 
-0.363364 -0.014632 1.136727 
-0.182411 -0.013885 1.183315 
0.190192 -0.010811 1.186867 
0.371854 -0.008710 1.144123 
0.544711 -0.006721 1.072240 
0.703654 -0.004634 0.972914 
0.844523 -0.002797 0.850564 
0.963817 0.000014 0.707293 
1.059601 0.002437 0.546320 
1.128012 0.005036 0.372081 
1.169190 0.006921 0.189991 
1.165070 0.011167 -0.182263 
1.120515 0.012584 -0.363617 
1.049047 0.013961 -0.536171 
0.952571 0.014972 -0.695986 
0.833024 0.015494 -0.839480 
0.692872 0.015264 -0.962388 
0.535254 0.015093 -1.062804 
0.363787 0.014691 -1.137405 
0.182035 0.013799 -1.183431 
-0.190256 0.010596 -1.186778 
-0.371769 0.008679 -1.143910 
-0.544522 0.006596 -1.072227 
-0.703337 0.005363 -0.973603 
-0.844211 0.002512 -0.850590 
-0.963577 -0.000147 -0.706996 
-1.059362 -0.002349 -0.546003 
-1.127903 -0.005093 -0.372021 
-1.169062 -0.006852 -0.190080 
0.789536 -0.377506 -0.397756 
0.394201 -0.781557 -0.421634 
0.375250 -0.357151 -0.820474 
0.864590 -0.279875 -0.322469 
0.276689 -0.890733 -0.314625 
0.656451 -0.314470 -0.631317 
0.531775 -0.612571 -0.518295 
0.841538 -0.467722 -0.093286 
0.163873 -0.605210 -0.744189 
0.592811 -0.149388 -0.757503 
0.848446 -0.135911 -0.448146 
0.188115 -0.845734 -0.460341 
0.928657 -0.120802 -0.255502 
0.776532 -0.272245 -0.501422 
0.655444 -0.627880 -0.323405 
0.441976 -0.857906 -0.181632 
0.603556 -0.747854 -0.155467 
0.502859 -0.456866 -0.682398 
0.773592 -0.120693 -0.573296 
0.531968 -0.740242 -0.327547 
0.962196 -0.107565 -0.104909 
0.744372 -0.604689 -0.134524 
0.135857 -0.952042 -0.258520 
0.910696 -0.291419 -0.146383 
0.707285 -0.450023 -0.467275 
0.251068 -0.955887 -0.132801 
0.528483 -0.279209 -0.761999 
0.312891 -0.689958 -0.604178 
0.804758 -0.451588 -0.272972 
0.480713 -0.159844 -0.834705 
0.130600 -0.747775 -0.615681 
0.179677 -0.464009 -0.837418 
0.163995 -0.300110 -0.918092 
0.331214 -0.538192 -0.732227 
0.611719 -0.460770 -0.579903 
0.109089 -0.995387 -0.106430 
0.425022 -0.583151 -0.639466 
0.314944 -0.195427 -0.907338 
0.194422 -0.113051 -0.962502 
0.505263 0.615572 -0.653342 
0.513503 0.818524 -0.376381 
0.802144 0.398146 -0.458804 
0.400980 0.499153 -0.800626 
0.361708 0.919919 -0.321504 
0.288292 0.339880 -0.913329 
0.165566 0.186153 -0.976656 
0.750126 0.241197 -0.609943 
0.673354 0.567806 -0.518098 
0.513070 0.878088 -0.186366 
0.591629 0.201394 -0.778333 
0.193884 0.912622 -0.463781 
0.170469 0.504076 -0.880042 
0.562644 0.717439 -0.486776 
0.163826 0.985769 -0.277098 
0.382237 0.163849 -0.911391 
0.122616 0.347746 -0.950035 
0.632310 0.734878 -0.349497 
0.119839 0.657171 -0.792574 
0.175440 0.789704 -0.655425 
0.306288 0.658381 -0.739073 
0.854372 0.508643 -0.176344 
0.606029 0.422311 -0.695664 
0.384799 0.802599 -0.539480 
0.761480 0.581908 -0.345054 
0.138482 1.011867 -0.130303 
0.301413 0.976605 -0.158119 
0.712949 0.717475 -0.158893 
0.930750 0.166628 -0.281762 
0.468925 0.332667 -0.832866 
0.849540 0.434223 -0.320211 
0.861715 0.192883 -0.446163 
0.929152 0.312134 -0.177254 
0.885209 0.305931 -0.340825 
0.966392 0.145370 -0.127972 
0.720596 0.411604 -0.576032 
0.464703 0.457386 0.751598 
0.461468 0.816954 0.371735 
0.828770 0.421874 0.369216 
0.336577 0.305168 0.883355 
0.314927 0.919345 0.282144 
0.899425 0.349662 0.254006 
0.950848 0.179472 0.211920 
0.556412 0.638405 0.535389 
0.118075 0.470530 0.856949 
0.748147 0.167222 0.636948 
0.443764 0.151924 0.881197 
0.439566 0.903926 0.169748 
0.862343 0.488261 0.164230 
0.265242 0.129167 0.952476 
0.266214 0.975976 0.126491 
0.930239 0.336604 0.122567 
0.611211 0.156078 0.773157 
0.516659 0.287576 0.801623 
0.325827 0.626897 0.697836 
0.777664 0.640182 0.107457 
0.674637 0.742839 0.160933 
0.591280 0.497366 0.632997 
0.203746 0.751815 0.614448 
0.761004 0.591667 0.292037 
0.634438 0.697802 0.358454 
0.397604 0.723637 0.563219 
0.560319 0.821875 0.211388 
0.123861 1.003500 0.106356 
0.117831 0.108019 0.983040 
0.471036 0.596377 0.646169 
0.161123 0.606011 0.761786 
0.704245 0.513821 0.493309 
0.642557 0.351021 0.677776 
0.164489 0.297220 0.929509 
0.178452 0.961451 0.252556 
0.781265 0.324451 0.529581 
0.832704 0.143588 0.525233 
0.228108 0.870669 0.438286 
0.879152 0.240944 0.399444 
0.263758 0.469111 0.830260 
0.497578 -0.800196 0.360685 
0.327063 -0.391847 0.881627 
0.315281 -0.893714 0.380166 
0.147285 -0.490039 0.889387 
0.510571 -0.170256 0.850918 
0.410794 -0.895941 0.207332 
0.596433 -0.558144 0.591879 
0.267035 -0.191538 0.956015 
0.214001 -0.975939 0.199564 
0.889978 -0.366615 0.173961 
0.755684 -0.404667 0.508743 
0.716126 -0.656989 0.156890 
0.854832 -0.187636 0.465266 
0.935872 -0.174135 0.241772 
0.502280 -0.336430 0.811351 
0.554141 -0.688878 0.487752 
0.591757 -0.777648 0.180306 
0.689821 -0.640704 0.319367 
[...]
POINT_DATA 1108
SCALARS u float 1
LOOKUP_TABLE default
0.024715
0.024665
0.030247
0.030660
0.019402
0.019643
0.021031
0.021191
0.024066
0.024152
0.013041
0.013069
0.020599
0.018822
0.021043
0.026002
0.030416
0.032188
0.031989
0.028077
0.027215
0.028188
0.030111
0.031748
0.031265
0.028622
0.020485
0.018664
0.020896
0.025713
0.030319
0.032443
0.032319
0.028205
0.027413
0.028243
0.030425
0.031781
0.031304
0.028378
0.022687
0.028910
0.034787
0.038979
0.040875
0.039445
0.035244
0.026019
0.023638
0.023220
0.023543
0.023486
0.021666
0.019709
0.022875
0.028904
0.034817
0.039088
0.040745
0.039244
0.035125
0.025800
0.023109
0.022865
0.023164
0.022834
0.021528
0.019640
0.019843
0.014664
0.009451
0.007253
0.008932
0.012463
0.016059
0.022456
0.025464
0.028065
0.029944
0.030831
0.030076
0.027912
0.019870
0.014709
0.009878
0.007462
0.008702
0.012537
0.016237
0.022181
0.025418
0.028244
0.030294
0.031282
0.030309
0.027918
0.016371
0.013018
0.013618
0.017472
0.022003
0.026496
0.029046
0.029008
0.027125
0.020756
0.018392
0.018731
0.021525
0.024692
0.027765
0.029121
0.028282
0.025553
0.016230
0.013144
0.013590
0.017568
0.021914
0.026489
0.029246
0.029567
0.027579
0.020888
0.018459
0.018616
0.021379
0.024812
0.027889
0.029123
0.028191
0.025359
0.019014
0.015942
0.016406
0.018573
0.019916
0.020687
0.019962
0.017274
0.014015
0.016005
0.021761
0.028314
0.033616
0.036819
0.038598
0.038204
0.034513
0.029775
0.018674
0.015816
0.016866
0.018473
0.019674
0.020656
0.019710
0.017323
0.014012
0.016035
0.021824
0.028383
0.033067
0.036724
0.038715
0.038437
0.034677
0.029942
0.023658
0.025193
0.025657
0.025106
0.023559
0.021491
0.019239
0.017038
0.014988
0.011211
0.009224
0.007374
0.005358
0.005292
0.007270
0.010028
0.014236
0.017612
0.023681
0.025317
0.025994
0.025392
0.023714
0.021438
0.018967
0.016740
0.015032
0.011005
0.009122
0.007259
0.006366
0.005404
0.007431
0.010195
0.014353
0.017714
0.038998
0.033649
0.032803
0.036879
0.028486
0.038098
0.038234
0.034911
0.029648
0.032937
0.034827
0.028309
0.032606
0.037912
0.038218
0.030429
0.033557
0.037824
0.034742
0.035694
0.029508
0.035059
0.025793
0.034110
0.040266
0.026899
0.034901
0.033702
0.038226
0.030827
0.028044
0.028716
0.025876
0.034222
0.039573
0.026845
0.036789
0.027666
0.023570
0.035714
0.038691
0.026385
0.033171
0.040179
0.028406
0.023527
0.027281
0.031550
0.035989
0.027117
0.042159
0.033427
0.037121
0.039259
0.025692
0.027576
0.034701
0.038248
0.041456
0.038738
0.023075
0.029598
0.041674
0.028841
0.034724
0.036713
0.029246
0.025733
0.028298
0.024738
0.026999
0.021943
0.024504
0.023883
0.027862
0.008395
0.018382
0.010736
0.011208
0.022491
0.013486
0.016403
0.011248
0.019163
0.004678
0.008527
0.025602
0.016054
0.013180
0.027667
0.016549
0.004291
0.005808
0.013825
0.020381
0.021884
0.007018
0.017569
0.014962
0.015689
0.014112
0.022791
0.027891
0.016720
0.010356
0.018417
0.008520
0.003605
0.016222
0.023976
0.005687
0.008088
0.019629
0.010519
0.014782
0.026428
0.023929
0.031149
0.029947
0.014190
0.027514
0.021494
0.018726
0.030921
0.026668
0.018007
0.027081
0.015442
0.021845
0.018919
0.024601
0.026159
0.023884
0.019803
0.024251
0.036768
0.036656
0.030298
0.027556
0.026866
0.012435
0.034122
0.024707
0.020929
0.022824
0.017478
0.031868
0.034745
0.029807
0.012579
0.017322
0.020863
0.031239
0.035424
0.038732
0.026196
0.032835
0.040582
0.028152
0.024023
0.026819
0.031107
0.036059
0.026824
0.042425
0.033160
0.036468
0.039391
0.025555
0.027657
0.034525
0.038089
0.041257
0.038367
0.023144
0.029215
0.041204
0.028461
0.035055
0.036857
0.028823
0.025642
0.027870
0.024450
0.026623
0.022082
0.024468
0.023757
0.027554
0.008843
0.018863
0.010901
0.011185
0.022723
0.012939
0.016291
0.011677
0.019293
0.005116
0.008425
0.025881
0.016204
0.013281
0.028066
0.016394
0.004410
0.005895
0.014069
0.020151
0.021601
0.007206
0.018204
0.015119
0.016168
0.014327
0.023131
0.028143
0.016957
0.010829
0.018678
0.009222
0.003782
0.016511
0.024267
0.006431
0.008402
0.019841
0.010437
0.014503
0.026447
0.024138
0.031098
0.030274
0.014213
0.027442
0.021529
0.018995
0.030789
0.026640
0.018091
0.026916
0.015777
0.022018
0.018837
0.024355
0.026267
0.023544
0.019981
0.024445
0.036760
0.036594
0.030346
0.027534
0.026905
0.012542
0.034116
0.024936
0.020907
0.022772
0.017525
0.031851
0.035076
0.029698
0.012574
0.017409
0.021075
0.031075
0.038626
0.033170
0.032627
0.036568
0.028416
0.037636
0.037783
0.034892
0.029039
0.032604
0.034434
0.027755
0.032576
0.037415
0.037730
0.030067
0.032798
0.037421
0.034249
0.034884
0.029663
0.034867
0.025592
0.033993
0.039767
0.026658
0.034613
0.033201
0.038085
0.030707
0.027558
0.028323
0.025756
0.033763
0.039093
0.026505
0.036314
0.027773
0.023720
0.015296
0.018309
0.020617
0.018690
0.023079
0.020086
0.025314
0.018008
0.023931
0.022573
0.015062
0.009168
0.031203
0.028860
0.010519
0.034621
0.009168
0.029745
0.017041
0.016424
0.022982
0.017738
0.015264
0.031976
0.024318
0.016384
0.024193
0.019536
0.019253
0.028798
0.018906
0.014027
0.025120
0.021334
0.014600
0.022997
0.013893
0.007519
0.036019
0.011773
0.025873
0.007581
0.033346
0.010776
0.029640
0.014817
0.027978
0.018013
0.019793
0.019757
0.019239
0.013437
0.019322
0.025050
0.022034
0.025349
0.011859
0.014895
0.022819
0.011970
0.020854
0.012184
0.030071
0.028775
0.025147
0.037579
0.015941
0.036713
0.016654
0.020447
0.032293
0.016456
0.016836
0.018176
0.039135
0.034145
0.040539
0.019834
0.017631
0.032007
0.023512
0.034891
0.031624
0.018181
0.038453
0.020457
0.026311
0.030136
0.034345
0.014801
0.034006
0.020248
0.025480
0.033754
0.022611
0.025334
0.033711
0.018668
0.038971
0.039309
0.020660
0.030305
0.018886
0.036934
0.019186
0.040763
0.017544
0.040645
0.016989
0.029360
0.023494
0.036265
0.017160
0.035393
0.024436
0.019725
0.029508
0.038195
0.020540
0.019813
0.027159
0.017098
0.021927
0.016115
0.002893
0.008682
0.014466
0.008393
0.007783
0.010358
0.010587
0.018450
0.009617
0.013791
0.021385
0.014407
0.012348
0.011956
0.012373
0.015121
0.023026
0.014051
0.004583
0.003745
0.004617
0.006446
0.010652
0.014711
0.014148
0.005125
0.007261
0.009904
0.013414
0.012527
0.012218
0.010016
0.011658
0.007913
0.007131
0.006320
0.007629
0.017443
0.016675
0.012054
0.016499
0.015374
0.020671
0.011070
0.009480
0.010652
0.008560
0.003136
0.003312
0.006186
0.006306
0.006014
0.005308
0.016898
0.011535
0.008538
0.008951
0.018042
0.004474
0.023466
0.016006
0.024456
0.036104
0.035097
0.023468
0.025697
0.034160
0.021928
0.032391
0.017359
0.027914
0.028683
0.033213
0.026513
0.029409
0.025352
0.033334
0.021066
0.023731
0.035618
0.032372
0.025855
0.031457
0.022199
0.032363
0.020488
0.037083
0.021707
0.030825
0.017635
0.029432
0.029540
0.018819
0.017784
0.031556
0.033646
0.037221
0.034796
0.037429
0.031573
0.023813
0.029887
0.025622
0.027240
0.023359
0.027500
0.030036
0.036628
0.026936
0.036152
0.031577
0.029749
0.027510
0.034475
0.035069
0.037875
0.025408
0.014817
0.037333
0.032867
0.018259
0.026509
0.017088
0.019347
0.011683
0.005711
0.009290
0.008937
0.018401
0.010658
0.019179
0.013458
0.024045
0.011965
0.002735
0.003634
0.012877
0.013691
0.006339
0.016171
0.004624
0.016247
0.011027
0.012741
0.022714
0.015246
0.010326
0.006605
0.007216
0.010719
0.023987
0.018983
0.013771
0.007330
0.013676
0.008865
0.003426
0.009308
0.007000
0.004782
0.012863
0.006120
0.015625
0.004677
0.005514
0.011924
0.003353
0.016588
0.004600
0.011219
0.007144
0.014639
0.016840
0.017179
0.009505
0.019429
0.010087
0.006514
0.022607
0.016838
0.003705
0.010164
0.009794
0.021541
0.011411
0.011659
0.036494
0.035612
0.025014
0.025605
0.034410
0.021807
0.032476
0.019663
0.017141
0.027879
0.017763
0.029189
0.033810
0.026886
0.025806
0.033479
0.021690
0.023373
0.036044
0.032578
0.025843
0.031817
0.022250
0.032433
0.020323
0.037536
0.021467
0.030988
0.017522
0.029339
0.030371
0.032099
0.034855
0.037827
0.035276
0.037759
0.031768
0.024218
0.030379
0.026386
0.030956
0.023681
0.027595
0.030468
0.036878
0.027094
0.036296
0.031874
0.030087
0.027474
0.034838
0.035425
0.038358
0.025316
0.014773
0.033302
0.037878
0.025012
0.026686
0.016850
0.019631
0.017842
0.015457
0.018214
0.018669
0.018449
0.023159
0.019918
0.025434
0.023704
0.022672
0.009122
0.031265
0.011024
0.028778
0.010300
0.034710
0.009622
0.028935
0.017078
0.016415
0.022961
0.017669
0.015091
0.032080
0.012642
0.016456
0.024138
0.019582
0.019085
0.028919
0.019787
0.022658
0.012279
0.013610
0.025289
0.021353
0.014566
0.023069
0.013784
0.007655
0.036055
0.014233
0.024943
0.007903
0.033253
0.010681
0.029709
0.014538
0.028061
0.018080
0.019655
0.019672
0.019284
0.013447
0.019497
0.025192
0.021886
0.011762
0.025426
0.016106
0.022926
0.016262
0.013865
0.035935
0.024751
0.016471
0.039495
0.022459
0.037213
0.019416
0.016252
0.034177
0.018338
0.018501
0.028945
0.018314
0.018027
0.032164
0.017649
0.017891
0.020217
0.033595
0.039885
0.040561
0.031582
0.034625
0.017031
0.018665
0.030716
0.038869
0.024580
0.032754
0.015506
0.019914
0.025898
0.019784
0.025110
0.030156
0.024912
0.038564
0.027017
0.019540
0.022720
0.017336
0.022865
0.020192
0.034703
0.019461
0.037527
0.019671
0.039031
0.036793
0.040711
0.027925
0.035913
0.029221
0.014927
0.029802
0.022399
0.033002
0.017124
0.039197
0.014506
0.021214
0.014575
0.017471
0.033657
0.015645
0.022495
0.030856
0.023596
0.024887
0.029401
0.015413
0.018540
0.026231
0.041359
0.019277
0.002914
0.024581
0.025336
0.035288
0.002810
0.033406
0.014040
0.032682
0.036429
0.030454
0.038139
0.020268
0.025795
0.031882
0.025955
0.022234
0.018655
0.018000
0.022118
0.027998
0.027290
0.030576
0.022555
0.018366
0.030541
0.020519
0.029336
0.032570
0.011076
0.024074
0.018124
0.023644
0.009808
0.030124
0.029842
0.018048
0.035440
0.040184
0.014647
0.004760
0.025139
0.027226
0.039381
0.034080
0.037642
0.025586
0.034004
0.025811
0.032567
0.035867
0.027890
0.041446
0.022065
0.019623
0.012808
0.030275
0.019947
0.012509
0.017482
0.019638
0.012096
0.023338
0.022019
0.020433
0.004098
0.010705
0.024049
0.030693
0.025836
0.026670
0.012884
0.021433
0.023354
0.030939
0.028890
0.031799
0.034330
0.031961
0.033536
0.032455
0.032769
0.038586
0.028887
0.026179
0.030026
0.030029
0.017474
0.020213
0.009630
