# vtk DataFile Version 2.0
Unstructured Grid Example
ASCII
DATASET UNSTRUCTURED_GRID
POINTS 1108 float
1.002325 0.000890 -0.021948 
-1.002326 -0.000863 0.021741 
0.001140 1.012734 -0.003352 
-0.000985 -1.013021 0.003484 
-0.021598 -0.003376 0.984788 
0.021506 0.003499 -0.984911 
1.202220 0.000619 -0.014544 
-1.202184 -0.000394 0.014556 
0.000808 1.212334 -0.002274 
-0.000743 -1.212153 0.002467 
-0.014426 -0.002278 1.185684 
0.014501 0.002363 -1.185606 
0.983407 0.197714 -0.022073 
0.926986 0.387416 -0.021490 
0.835208 0.562543 -0.019916 
0.711221 0.716069 -0.017900 
0.559537 0.842325 -0.014536 
0.385857 0.936137 -0.011240 
0.197240 0.993721 -0.007509 
-0.195018 0.992551 0.000569 
-0.383783 0.934430 0.004889 
-0.557137 0.840360 0.009302 
-0.709162 0.713933 0.013140 
-0.833992 0.560351 0.016009 
-0.925902 0.385356 0.018927 
-0.982939 0.196014 0.020649 
-0.983419 -0.197537 0.021890 
-0.926701 -0.387245 0.021311 
-0.834652 -0.562293 0.019771 
-0.710697 -0.715921 0.017743 
-0.559263 -0.842335 0.014726 
-0.385724 -0.936161 0.011541 
-0.197225 -0.993640 0.007457 
0.195327 -0.992905 -0.000581 
0.383838 -0.934873 -0.004830 
0.557233 -0.840524 -0.009534 
0.709123 -0.713966 -0.013085 
0.833959 -0.560407 -0.016030 
0.925818 -0.385312 -0.018973 
0.982951 -0.195945 -0.020705 
-0.021293 -0.199292 0.967472 
-0.020340 -0.388082 0.913382 
-0.018357 -0.562854 0.824449 
-0.015888 -0.716451 0.703526 
-0.012920 -0.843107 0.554373 
-0.009006 -0.936858 0.383702 
-0.005017 -0.994418 0.197555 
0.003253 -0.991871 -0.190785 
0.007342 -0.932111 -0.376614 
0.011273 -0.836546 -0.547060 
0.014541 -0.709180 -0.696012 
0.017235 -0.555313 -0.817880 
0.019532 -0.380916 -0.908436 
0.020818 -0.192318 -0.964876 
0.021265 0.199236 -0.967520 
0.020111 0.388059 -0.913779 
0.018517 0.562904 -0.824502 
0.015982 0.716406 -0.703344 
0.012882 0.843002 -0.554256 
0.009155 0.936832 -0.383568 
0.005206 0.994401 -0.197484 
-0.003073 0.991882 0.190850 
-0.007425 0.932232 0.376324 
-0.011280 0.836485 0.547132 
-0.014659 0.709271 0.696114 
-0.017392 0.555373 0.817752 
-0.019599 0.381035 0.908683 
-0.020959 0.192443 0.965036 
0.974543 0.000213 0.171252 
0.909659 -0.000534 0.355546 
0.810858 -0.001038 0.525596 
0.683279 -0.001578 0.675082 
0.530736 -0.002381 0.799617 
0.358447 -0.002774 0.895239 
0.172386 -0.003059 0.958178 
-0.216415 -0.003363 0.974208 
-0.404714 -0.003685 0.926039 
-0.578182 -0.003223 0.841073 
-0.729965 -0.003009 0.721245 
-0.852945 -0.002822 0.573146 
-0.940808 -0.001967 0.401938 
-0.991319 -0.001473 0.215491 
-0.974515 -0.000168 -0.171420 
-0.909837 0.000520 -0.355744 
-0.811248 0.000974 -0.525686 
-0.683545 0.001569 -0.675196 
-0.530920 0.002199 -0.799285 
-0.358434 0.002711 -0.895194 
-0.172440 0.003119 -0.958205 
0.216232 0.003563 -0.974207 
0.404620 0.003683 -0.925966 
0.577953 0.003352 -0.840955 
0.729800 0.003073 -0.721261 
0.852965 0.002789 -0.573108 
0.940829 0.002118 -0.402058 
0.991111 0.001575 -0.215537 
1.187721 0.189430 -0.014593 
1.144325 0.373768 -0.014524 
1.073111 0.549050 -0.013824 
0.975051 0.711270 -0.013205 
0.852930 0.856451 -0.012048 
0.709789 0.980223 -0.009999 
0.548696 1.080183 -0.008494 
0.373823 1.153391 -0.006479 
0.189560 1.197686 -0.004755 
-0.188002 1.196895 0.000198 
-0.372298 1.151655 0.002796 
-0.546947 1.078447 0.004424 
-0.708189 0.978167 0.006298 
-0.851083 0.854470 0.008304 
-0.973078 0.709917 0.010654 
-1.071761 0.547597 0.011795 
-1.143208 0.372630 0.012896 
-1.187155 0.188429 0.013844 
-1.187633 -0.189439 0.014659 
-1.144047 -0.373660 0.014491 
-1.072668 -0.548905 0.013854 
-0.974617 -0.711000 0.013103 
-0.852912 -0.856257 0.011681 
-0.709770 -0.980039 0.009951 
-0.548579 -1.080202 0.008396 
-0.373753 -1.153328 0.006515 
-0.189545 -1.197748 0.004774 
0.188182 -1.196981 -0.000151 
0.372455 -1.152017 -0.002720 
0.547188 -1.078614 -0.004493 
0.708335 -0.978303 -0.006435 
0.851187 -0.854380 -0.008401 
0.973114 -0.709858 -0.010861 
1.071758 -0.547544 -0.011861 
1.143187 -0.372567 -0.012908 
1.187172 -0.188310 -0.013909 
0.001886 -1.196016 -0.185056 
0.003835 -1.149716 -0.367792 
0.006051 -1.074713 -0.540422 
0.007662 -0.973393 -0.698827 
0.009783 -0.848589 -0.839935 
0.011681 -0.703344 -0.959629 
0.012508 -0.542049 -1.055655 
0.013380 -0.367910 -1.126241 
0.014130 -0.185137 -1.170030 
0.014270 0.189935 -1.172310 
0.013890 0.373104 -1.131006 
0.013189 0.548241 -1.061739 
0.012164 0.710502 -0.966451 
0.010708 0.855670 -0.846410 
0.008648 0.979879 -0.705841 
0.007059 1.080472 -0.546385 
0.005474 1.154180 -0.372703 
0.002915 1.198244 -0.190057 
-0.001988 1.195827 0.184949 
-0.003802 1.149877 0.367625 
-0.005602 1.074401 0.540938 
-0.007623 0.973313 0.698825 
-0.009784 0.848679 0.839892 
-0.011890 0.703364 0.959909 
-0.012612 0.542095 1.055727 
-0.013490 0.367931 1.126437 
-0.014191 0.185065 1.170090 
-0.014417 -0.189810 1.172338 
-0.013892 -0.373224 1.130752 
-0.013173 -0.548096 1.061696 
-0.012211 -0.710410 0.966681 
-0.010644 -0.855635 0.846582 
-0.008597 -0.979950 0.705979 
-0.007028 -1.080565 0.546473 
-0.005433 -1.154204 0.372826 
-0.002856 -1.198298 0.190294 
-1.194805 -0.000950 0.201605 
-1.156727 -0.001047 0.385719 
-1.088784 -0.001594 0.560812 
-0.991763 -0.001577 0.721881 
-0.868728 -0.002241 0.863380 
-0.724541 -0.002246 0.982627 
-0.561661 -0.002290 1.076911 
-0.385678 -0.002219 1.142108 
-0.201538 -0.002369 1.178555 
0.171642 -0.002043 1.163764 
0.352310 -0.002020 1.114344 
0.523187 -0.001770 1.038693 
0.681510 -0.001418 0.939759 
0.824804 -0.001179 0.819534 
0.948417 -0.000973 0.679028 
1.050127 -0.000413 0.522004 
1.128343 -0.000017 0.351814 
1.179864 0.000263 0.171921 
1.194741 0.001022 -0.201832 
1.156848 0.001338 -0.385646 
1.088898 0.001620 -0.560814 
0.991616 0.001703 -0.721807 
0.868772 0.002185 -0.863277 
0.724584 0.002109 -0.982559 
0.561609 0.002256 -1.076787 
0.385477 0.002301 -1.142154 
0.201542 0.002311 -1.178433 
-0.171772 0.002004 -1.163898 
-0.352525 0.001975 -1.114341 
-0.523176 0.001859 -1.038499 
-0.681603 0.001763 -0.940155 
-0.824930 0.001166 -0.819703 
-0.948667 0.000926 -0.679226 
-1.050461 0.000353 -0.522194 
-1.128489 -0.000014 -0.351888 
-1.179859 -0.000229 -0.171967 
0.834818 -0.401049 -0.430117 
0.428663 -0.801447 -0.446247 
0.413801 -0.378466 -0.839541 
0.907292 -0.301124 -0.354128 
0.304278 -0.904188 -0.335770 
0.702267 -0.338541 -0.661394 
0.573285 -0.636708 -0.546910 
0.876111 -0.485546 -0.125007 
0.196880 -0.622061 -0.757481 
0.635018 -0.171039 -0.781381 
0.892294 -0.156727 -0.478188 
0.217471 -0.859818 -0.478068 
0.966764 -0.138796 -0.285370 
0.822818 -0.295500 -0.533142 
0.695961 -0.651149 -0.355032 
0.470531 -0.872639 -0.207626 
0.636306 -0.765933 -0.185371 
0.545374 -0.480859 -0.709385 
0.818853 -0.142246 -0.602285 
0.568747 -0.761843 -0.355905 
0.992743 -0.123040 -0.133888 
0.779392 -0.623742 -0.165909 
0.158444 -0.958942 -0.275529 
0.946756 -0.309195 -0.177620 
0.753368 -0.475237 -0.499779 
0.272564 -0.962227 -0.153641 
0.570814 -0.301825 -0.786862 
0.348564 -0.710266 -0.625783 
0.846945 -0.473756 -0.305107 
0.519894 -0.180620 -0.853790 
0.161277 -0.762605 -0.629765 
0.213402 -0.481369 -0.848127 
0.196751 -0.316899 -0.923296 
0.368591 -0.559425 -0.753201 
0.656801 -0.486107 -0.610334 
0.126625 -0.996111 -0.123673 
0.464608 -0.606359 -0.664904 
0.350179 -0.214468 -0.917920 
0.225858 -0.130341 -0.963106 
0.521337 0.595478 -0.650326 
0.518107 0.799158 -0.372109 
0.827716 0.381700 -0.473610 
0.421124 0.478856 -0.794720 
0.361125 0.901118 -0.312139 
0.312404 0.320255 -0.904989 
0.191493 0.168353 -0.965300 
0.783659 0.223212 -0.627662 
0.691442 0.549686 -0.523764 
0.511466 0.860668 -0.183961 
0.624807 0.182488 -0.790859 
0.195894 0.892370 -0.446361 
0.188642 0.483212 -0.861814 
0.572917 0.698216 -0.485214 
0.159643 0.969224 -0.261573 
0.412423 0.144757 -0.913685 
0.144319 0.328859 -0.931957 
0.640111 0.716398 -0.351658 
0.133158 0.635119 -0.770419 
0.183868 0.767566 -0.635877 
0.320238 0.636652 -0.725173 
0.867026 0.494697 -0.190887 
0.631145 0.403823 -0.701845 
0.392038 0.781226 -0.529023 
0.776716 0.565325 -0.354628 
0.129866 0.999798 -0.116518 
0.295717 0.960866 -0.148887 
0.716525 0.701690 -0.165866 
0.960928 0.151122 -0.306079 
0.495627 0.313670 -0.834963 
0.870622 0.418985 -0.335715 
0.896213 0.176140 -0.468815 
0.949939 0.298349 -0.197780 
0.912252 0.290663 -0.360886 
0.991076 0.131534 -0.152961 
0.746289 0.394271 -0.587328 
0.440762 0.456595 0.731059 
0.445035 0.809458 0.365607 
0.819524 0.412187 0.346387 
0.310516 0.310302 0.862268 
0.299675 0.913090 0.283804 
0.897949 0.339343 0.230844 
0.956223 0.169509 0.185490 
0.537383 0.632260 0.520329 
0.089950 0.479084 0.851646 
0.730940 0.164667 0.605585 
0.418462 0.156957 0.852074 
0.427543 0.893335 0.169198 
0.861506 0.476390 0.145414 
0.238865 0.138379 0.928981 
0.253528 0.967561 0.132684 
0.936139 0.324991 0.100461 
0.589061 0.156828 0.740926 
0.492590 0.288220 0.774859 
0.301684 0.627689 0.687880 
0.775021 0.626966 0.094124 
0.667167 0.729856 0.150916 
0.570514 0.492555 0.611735 
0.179769 0.754759 0.612683 
0.752149 0.580481 0.275398 
0.620468 0.687858 0.345187 
0.376726 0.720401 0.554517 
0.549145 0.810185 0.205531 
0.109888 0.997732 0.117794 
0.090490 0.120354 0.965776 
0.448966 0.593230 0.630603 
0.134349 0.612306 0.757912 
0.688051 0.506186 0.472356 
0.621536 0.347520 0.651033 
0.136756 0.306621 0.916090 
0.161697 0.958232 0.259813 
0.765655 0.318397 0.502764 
0.820591 0.139341 0.494204 
0.207608 0.870014 0.440320 
0.872331 0.233217 0.371862 
0.236919 0.474023 0.817711 
0.503898 -0.794949 0.329644 
0.307945 -0.375325 0.845563 
0.319652 -0.883309 0.352076 
0.129747 -0.470176 0.858009 
0.489040 -0.160230 0.813928 
0.423281 -0.894245 0.179936 
0.590086 -0.549040 0.555165 
0.243944 -0.177492 0.924284 
0.224139 -0.968926 0.176633 
0.908588 -0.376326 0.142209 
0.752646 -0.402290 0.472525 
0.735337 -0.665042 0.125519 
0.851601 -0.189616 0.431133 
0.947126 -0.182475 0.210699 
0.484324 -0.323917 0.772893 
0.554392 -0.680854 0.453600 
0.607984 -0.781859 0.150126 
0.699500 -0.641916 0.286362 
[...]
POINT_DATA 1108
SCALARS u float 1
LOOKUP_TABLE default
0.022089
0.021882
0.013217
0.013515
0.026632
0.026503
0.014726
0.014724
0.012567
0.012423
0.020451
0.020568
0.022383
0.022223
0.021430
0.020436
0.018571
0.016931
0.015111
0.011780
0.011680
0.012963
0.014949
0.016897
0.019221
0.020781
0.022184
0.021975
0.021124
0.020135
0.018669
0.017126
0.015014
0.012136
0.012063
0.013253
0.014910
0.016928
0.019252
0.020836
0.025462
0.023517
0.020960
0.018776
0.017429
0.015830
0.014734
0.012329
0.012589
0.015009
0.018407
0.021950
0.024963
0.026348
0.025404
0.023138
0.021100
0.018870
0.017339
0.015886
0.014773
0.012270
0.012858
0.014953
0.018451
0.022152
0.024855
0.026350
0.024643
0.030643
0.036392
0.039948
0.040460
0.037622
0.032185
0.022568
0.022441
0.024777
0.027045
0.027894
0.025714
0.023007
0.024487
0.030384
0.036096
0.039698
0.040600
0.037659
0.032135
0.022427
0.022342
0.024540
0.026921
0.027882
0.025829
0.022960
0.014903
0.015132
0.014984
0.015080
0.015077
0.014427
0.014417
0.014070
0.013463
0.011674
0.010858
0.010469
0.010087
0.010525
0.011813
0.012391
0.013166
0.013996
0.014954
0.015026
0.014861
0.014769
0.014677
0.014269
0.014343
0.014018
0.013525
0.011765
0.011208
0.010697
0.010313
0.010578
0.011984
0.012441
0.013166
0.014057
0.011274
0.009759
0.009273
0.010381
0.013021
0.016300
0.018645
0.020330
0.020910
0.019374
0.017420
0.015545
0.013917
0.013044
0.012533
0.013389
0.014150
0.013543
0.011137
0.009939
0.008554
0.010334
0.013051
0.016259
0.018656
0.020255
0.020917
0.019450
0.017588
0.015521
0.013854
0.012945
0.012556
0.013462
0.014173
0.013626
0.016894
0.021495
0.025348
0.026733
0.025172
0.022650
0.018689
0.015046
0.015525
0.026895
0.032736
0.037429
0.039177
0.037482
0.034573
0.029721
0.022985
0.016687
0.017050
0.021549
0.025439
0.026580
0.025142
0.022638
0.018587
0.014862
0.015573
0.026708
0.032614
0.037598
0.038821
0.037271
0.034259
0.029361
0.022841
0.016645
0.022517
0.014245
0.019710
0.022583
0.012493
0.023523
0.018104
0.018156
0.017446
0.024243
0.025590
0.013280
0.023183
0.024584
0.018283
0.013344
0.015294
0.019760
0.026678
0.015778
0.021462
0.017031
0.012071
0.020451
0.022039
0.011838
0.022248
0.015374
0.020286
0.022304
0.015334
0.019401
0.021280
0.017330
0.021282
0.012131
0.017331
0.020816
0.021939
0.025704
0.023240
0.027974
0.023992
0.020487
0.022438
0.022668
0.028557
0.027148
0.020578
0.026535
0.019217
0.021273
0.025648
0.017323
0.023156
0.022372
0.024465
0.020194
0.019956
0.022445
0.023644
0.027592
0.023014
0.026096
0.015519
0.017614
0.022304
0.025001
0.025148
0.025980
0.027833
0.023663
0.026368
0.022789
0.028310
0.034598
0.019484
0.028506
0.035155
0.015119
0.025858
0.025576
0.027368
0.026269
0.038159
0.038823
0.016306
0.023005
0.034603
0.014467
0.023288
0.040724
0.038581
0.027106
0.020872
0.019926
0.032976
0.020868
0.023906
0.023185
0.023878
0.018227
0.012963
0.029955
0.029721
0.024208
0.030132
0.037051
0.030333
0.013313
0.034330
0.035494
0.016250
0.030836
0.030404
0.016049
0.030857
0.014095
0.024830
0.038247
0.012729
0.027370
0.032849
0.012624
0.021119
0.029912
0.016581
0.031962
0.025017
0.034863
0.020937
0.014704
0.019898
0.029057
0.027830
0.017363
0.014725
0.017994
0.018852
0.023442
0.036970
0.015422
0.028647
0.024989
0.023072
0.033705
0.021401
0.020995
0.025570
0.038679
0.035630
0.026308
0.012985
0.025880
0.023394
0.027648
0.024310
0.020728
0.022409
0.022562
0.028406
0.027305
0.020799
0.026882
0.019226
0.021407
0.025255
0.017158
0.023251
0.022365
0.024446
0.020085
0.019934
0.022475
0.023195
0.027725
0.023063
0.025929
0.015511
0.017721
0.022113
0.024792
0.025143
0.026029
0.027711
0.023348
0.026188
0.022713
0.028490
0.033959
0.019265
0.027997
0.035194
0.015256
0.025668
0.025439
0.027444
0.026157
0.038122
0.038778
0.016391
0.022796
0.034468
0.014390
0.023086
0.040293
0.038497
0.026721
0.020553
0.019999
0.032828
0.020335
0.023787
0.023148
0.023785
0.018313
0.013103
0.029978
0.029067
0.024161
0.029943
0.036721
0.030431
0.013550
0.034013
0.035124
0.016352
0.030794
0.030390
0.015922
0.030784
0.014048
0.024868
0.038469
0.012572
0.027282
0.032844
0.012454
0.021084
0.029718
0.016543
0.031797
0.024865
0.034704
0.020998
0.014450
0.019776
0.028873
0.027662
0.017261
0.014760
0.018022
0.018874
0.023391
0.036857
0.015445
0.028580
0.024797
0.022788
0.033548
0.021196
0.020949
0.025417
0.038596
0.035707
0.026065
0.012820
0.022526
0.014240
0.019855
0.022685
0.012554
0.023531
0.018086
0.018189
0.017474
0.024361
0.025638
0.012869
0.023040
0.024574
0.018221
0.013151
0.014880
0.019797
0.026708
0.015667
0.021370
0.016961
0.012075
0.020493
0.022028
0.011656
0.022366
0.015577
0.020251
0.022463
0.015427
0.019512
0.021366
0.017493
0.021263
0.011982
0.017494
0.020902
0.021995
0.016378
0.024917
0.026281
0.018698
0.009689
0.018473
0.010336
0.027890
0.014862
0.011592
0.025177
0.033942
0.013736
0.018338
0.031225
0.011131
0.037148
0.017386
0.011144
0.016780
0.012870
0.009270
0.024259
0.012035
0.021914
0.021200
0.014616
0.010285
0.018273
0.012320
0.027764
0.029957
0.020207
0.019648
0.025758
0.010978
0.023111
0.035868
0.011934
0.034141
0.022260
0.037818
0.013840
0.029343
0.011307
0.024364
0.010062
0.012384
0.009566
0.016188
0.009378
0.022653
0.015699
0.012476
0.015057
0.014815
0.028686
0.032336
0.010537
0.034140
0.020967
0.030590
0.024213
0.024470
0.017988
0.018668
0.022388
0.017264
0.020695
0.015391
0.015259
0.016696
0.015395
0.027207
0.018154
0.016745
0.016401
0.027228
0.021916
0.014464
0.023281
0.021786
0.017935
0.018539
0.016317
0.023802
0.014921
0.025361
0.016946
0.018079
0.015267
0.019046
0.021744
0.020731
0.025354
0.026620
0.023664
0.025626
0.021466
0.014714
0.026789
0.017568
0.024322
0.014677
0.025448
0.019683
0.027483
0.019314
0.025380
0.020780
0.018103
0.019806
0.021811
0.023687
0.026436
0.015864
0.013717
0.022000
0.027617
0.019901
0.017481
0.017318
0.015419
0.014712
0.032915
0.021260
0.011277
0.032878
0.023298
0.030191
0.019799
0.010437
0.029402
0.018874
0.011437
0.015122
0.020702
0.015313
0.015028
0.022696
0.012414
0.011324
0.031386
0.036861
0.038693
0.032599
0.015832
0.025035
0.010119
0.027511
0.034785
0.025298
0.015831
0.025462
0.015107
0.020094
0.017835
0.022934
0.025235
0.024856
0.032777
0.013659
0.017744
0.013235
0.013438
0.014370
0.013079
0.026761
0.018486
0.029319
0.019564
0.036074
0.038621
0.036155
0.028515
0.026915
0.031144
0.015509
0.024626
0.026813
0.021246
0.011493
0.036771
0.012117
0.009491
0.012218
0.020743
0.015676
0.011768
0.014223
0.020364
0.013972
0.018258
0.014889
0.017953
0.011496
0.015449
0.011098
0.013933
0.013255
0.014733
0.009301
0.012164
0.023355
0.018831
0.019823
0.025037
0.015302
0.014849
0.011707
0.018118
0.015203
0.022175
0.016816
0.015177
0.013262
0.010124
0.011153
0.013324
0.015678
0.018181
0.015445
0.020843
0.014964
0.012303
0.012490
0.011021
0.013091
0.010195
0.012363
0.012452
0.017562
0.013035
0.018314
0.022759
0.025120
0.016743
0.022921
0.016946
0.020582
0.015139
0.017405
0.018217
0.013897
0.011156
0.023311
0.011007
0.011317
0.018679
0.029200
0.032208
0.020425
0.010389
0.019732
0.010692
0.015691
0.012328
0.018196
0.035981
0.037656
0.023231
0.012115
0.031928
0.022163
0.038591
0.013753
0.018100
0.015022
0.012318
0.009789
0.024961
0.035824
0.024602
0.016017
0.011686
0.010900
0.018790
0.031813
0.026824
0.031063
0.034384
0.025461
0.024100
0.029561
0.013979
0.024903
0.013804
0.036492
0.036033
0.027326
0.038702
0.017656
0.031036
0.014918
0.025869
0.010660
0.013693
0.013553
0.018289
0.011490
0.019569
0.024959
0.012209
0.015469
0.031106
0.019372
0.031396
0.012992
0.027197
0.024343
0.020701
0.015595
0.011696
0.014090
0.020331
0.013914
0.018266
0.011439
0.014849
0.018036
0.011559
0.011321
0.015467
0.010724
0.013257
0.014840
0.009229
0.012261
0.023346
0.018697
0.019667
0.025006
0.015275
0.014848
0.010176
0.018101
0.015068
0.022238
0.016808
0.015190
0.013687
0.012940
0.015995
0.018253
0.015247
0.020836
0.014781
0.012349
0.012784
0.010799
0.014567
0.010094
0.012564
0.012288
0.017573
0.012917
0.018380
0.022670
0.025032
0.016560
0.022894
0.016834
0.020594
0.015197
0.017397
0.013641
0.018311
0.012814
0.023221
0.010172
0.011546
0.011374
0.016346
0.024915
0.028395
0.018813
0.009745
0.018568
0.010461
0.014917
0.011762
0.034133
0.013747
0.035335
0.018295
0.031410
0.011124
0.036834
0.017364
0.011242
0.016903
0.012923
0.009384
0.024474
0.012055
0.033690
0.021173
0.014641
0.010417
0.018358
0.012428
0.027409
0.022360
0.030160
0.030953
0.020412
0.019652
0.026015
0.010949
0.023325
0.036039
0.011896
0.032748
0.022274
0.037863
0.013760
0.029546
0.011283
0.024597
0.010031
0.012513
0.009712
0.016244
0.009454
0.022818
0.015626
0.012590
0.015138
0.029081
0.014854
0.028753
0.010618
0.024987
0.023326
0.021874
0.025802
0.024789
0.018724
0.016078
0.017252
0.015029
0.021411
0.015189
0.015917
0.017635
0.021547
0.026724
0.027307
0.018225
0.022335
0.017437
0.026943
0.018531
0.020070
0.016169
0.014672
0.016953
0.016572
0.024702
0.025237
0.016388
0.014733
0.015346
0.014869
0.026025
0.024928
0.027548
0.026428
0.024729
0.020607
0.021575
0.017315
0.025048
0.022001
0.026936
0.017491
0.027284
0.021307
0.023495
0.019913
0.018821
0.017821
0.014881
0.018664
0.015910
0.023660
0.024045
0.016842
0.013784
0.025320
0.023174
0.021891
0.014636
0.017836
0.021858
0.016569
0.019277
0.019756
0.030793
0.021715
0.023713
0.027114
0.026522
0.009832
0.005104
0.019681
0.018389
0.022322
0.019779
0.032469
0.018844
0.020291
0.021801
0.033034
0.025144
0.004554
0.012732
0.015773
0.015162
0.019081
0.030641
0.026038
0.029170
0.025338
0.027123
0.022141
0.032837
0.031620
0.028536
0.027235
0.017687
0.033504
0.032875
0.012734
0.025976
0.011570
0.025163
0.037719
0.020826
0.026771
0.021972
0.036040
0.015259
0.015401
0.032552
0.016590
0.019484
0.030141
0.036311
0.025157
0.024442
0.022270
0.024158
0.017643
0.024612
0.028829
0.024626
0.024849
0.021476
0.023126
0.023768
0.024851
0.031334
0.037106
0.019144
0.026084
0.030860
0.031396
0.031457
0.035042
0.021248
0.025526
0.028891
0.034818
0.031249
0.029801
0.027409
0.031828
0.030043
0.036903
0.032934
0.026640
0.013926
0.015330
0.012091
0.019810
0.014185
0.013788
0.024009
0.027071
0.022876
0.023621
0.025253
0.025977
0.012419
0.009520
0.024638
0.007422
