# vtk DataFile Version 2.0
Unstructured Grid Example
ASCII
DATASET UNSTRUCTURED_GRID
POINTS 1108 float
0.999178 -0.000315 0.007764 
-0.999177 0.000305 -0.007691 
-0.000403 0.995495 0.001186 
0.000348 -0.995394 -0.001232 
0.007640 0.001194 1.005381 
-0.007608 -0.001238 -1.005338 
1.199215 -0.000219 0.005145 
-1.199227 0.000139 -0.005149 
-0.000286 1.195637 0.000804 
0.000263 -1.195701 -0.000873 
0.005103 0.000806 1.205064 
-0.005130 -0.000836 -1.205092 
0.979858 0.194162 0.007808 
0.922781 0.381009 0.007602 
0.830147 0.553104 0.007045 
0.705652 0.703936 0.006332 
0.554167 0.827629 0.005142 
0.381561 0.919543 0.003976 
0.194330 0.976209 0.002656 
-0.195116 0.976623 -0.000201 
-0.382294 0.920147 -0.001729 
-0.555016 0.828324 -0.003291 
-0.706380 0.704692 -0.004648 
-0.830577 0.553879 -0.005663 
-0.923164 0.381738 -0.006695 
-0.980023 0.194764 -0.007305 
-0.979853 -0.194225 -0.007744 
-0.922882 -0.381070 -0.007539 
-0.830344 -0.553192 -0.006994 
-0.705837 -0.703989 -0.006277 
-0.554264 -0.827626 -0.005209 
-0.381608 -0.919535 -0.004083 
-0.194335 -0.976238 -0.002638 
0.195006 -0.976498 0.000206 
0.382275 -0.919991 0.001709 
0.554982 -0.828266 0.003373 
0.706394 -0.704680 0.004629 
0.830589 -0.553859 0.005671 
0.923194 -0.381754 0.006712 
0.980019 -0.194788 0.007324 
0.007533 -0.193604 0.985495 
0.007195 -0.380774 0.927593 
0.006494 -0.552994 0.833953 
0.005620 -0.703801 0.708374 
0.004571 -0.827353 0.555994 
0.003186 -0.919288 0.382323 
0.001775 -0.975963 0.194218 
-0.001151 -0.976864 -0.196613 
-0.002597 -0.920968 -0.384830 
-0.003988 -0.829674 -0.558581 
-0.005144 -0.706373 -0.711032 
-0.006097 -0.555661 -0.836277 
-0.006910 -0.383309 -0.929343 
-0.007364 -0.196071 -0.986413 
-0.007523 0.193624 -0.985478 
-0.007114 0.380782 -0.927452 
-0.006550 0.552976 -0.833935 
-0.005654 0.703817 -0.708438 
-0.004557 0.827390 -0.556035 
-0.003239 0.919298 -0.382370 
-0.001842 0.975969 -0.194244 
0.001087 0.976860 0.196590 
0.002627 0.920925 0.384933 
0.003990 0.829696 0.558555 
0.005186 0.706341 0.710996 
0.006152 0.555640 0.836322 
0.006933 0.383267 0.929255 
0.007414 0.196027 0.986357 
0.982993 -0.000075 0.203523 
0.928910 0.000189 0.392284 
0.838761 0.000367 0.566174 
0.715536 0.000558 0.718435 
0.564355 0.000842 0.842737 
0.391257 0.000981 0.934011 
0.203122 0.001082 0.988783 
-0.187547 0.001190 0.983112 
-0.374890 0.001304 0.923116 
-0.547571 0.001140 0.828072 
-0.699021 0.001064 0.702105 
-0.823873 0.000998 0.549353 
-0.917891 0.000696 0.375872 
-0.977059 0.000521 0.187874 
-0.983004 0.000059 -0.203464 
-0.928847 -0.000184 -0.392213 
-0.838623 -0.000345 -0.566142 
-0.715442 -0.000555 -0.718395 
-0.564290 -0.000778 -0.842855 
-0.391262 -0.000959 -0.934027 
-0.203103 -0.001103 -0.988773 
0.187611 -0.001260 -0.983113 
0.374923 -0.001303 -0.923141 
0.547652 -0.001186 -0.828114 
0.699079 -0.001087 -0.702100 
0.823866 -0.000987 -0.549366 
0.917884 -0.000749 -0.375830 
0.977133 -0.000557 -0.187857 
1.184343 0.187117 0.005162 
1.140186 0.369778 0.005138 
1.067827 0.543281 0.004890 
0.969324 0.703246 0.004671 
0.846971 0.845725 0.004262 
0.703769 0.967494 0.003537 
0.543407 1.065326 0.003005 
0.369758 1.136979 0.002292 
0.187071 1.180818 0.001682 
-0.187622 1.181098 -0.000070 
-0.370298 1.137593 -0.000989 
-0.544025 1.065939 -0.001565 
-0.704335 0.968221 -0.002228 
-0.847625 0.846426 -0.002938 
-0.970022 0.703724 -0.003769 
-1.068305 0.543795 -0.004172 
-1.140581 0.370180 -0.004562 
-1.184544 0.187471 -0.004897 
-1.184374 -0.187114 -0.005186 
-1.140285 -0.369816 -0.005126 
-1.067984 -0.543333 -0.004901 
-0.969478 -0.703341 -0.004635 
-0.846977 -0.845794 -0.004132 
-0.703776 -0.967559 -0.003520 
-0.543448 -1.065319 -0.002970 
-0.369783 -1.137002 -0.002305 
-0.187076 -1.180796 -0.001689 
0.187558 -1.181068 0.000053 
0.370242 -1.137465 0.000962 
0.543940 -1.065880 0.001589 
0.704284 -0.968173 0.002276 
0.847588 -0.846458 0.002972 
0.970009 -0.703745 0.003842 
1.068306 -0.543814 0.004196 
1.140589 -0.370202 0.004566 
1.184538 -0.187513 0.004920 
-0.000667 -1.181409 -0.188664 
-0.001357 -1.138279 -0.371892 
-0.002141 -1.067261 -0.546333 
-0.002710 -0.969910 -0.707647 
-0.003461 -0.848507 -0.851568 
-0.004132 -0.706049 -0.974779 
-0.004425 -0.545758 -1.074002 
-0.004733 -0.371850 -1.146584 
-0.004998 -0.188636 -1.190602 
-0.005048 0.186938 -1.189795 
-0.004914 0.370013 -1.144898 
-0.004665 0.543567 -1.071850 
-0.004303 0.703517 -0.972366 
-0.003788 0.846002 -0.849278 
-0.003059 0.967616 -0.705166 
-0.002497 1.065223 -0.544224 
-0.001937 1.136700 -0.370154 
-0.001031 1.180621 -0.186895 
0.000703 1.181476 0.188702 
0.001345 1.138222 0.371951 
0.001982 1.067371 0.546151 
0.002697 0.969938 0.707648 
0.003461 0.848475 0.851583 
0.004206 0.706042 0.974680 
0.004462 0.545741 1.073977 
0.004772 0.371843 1.146514 
0.005020 0.188661 1.190580 
0.005100 -0.186982 1.189785 
0.004914 -0.369970 1.144988 
0.004660 -0.543619 1.071865 
0.004320 -0.703550 0.972285 
0.003765 -0.846014 0.849216 
0.003041 -0.967591 0.705117 
0.002486 -1.065190 0.544193 
0.001922 -1.136692 0.370111 
0.001010 -1.180602 0.186811 
-1.181837 0.000336 0.182810 
-1.135799 0.000370 0.365550 
-1.062283 0.000564 0.539120 
-0.963412 0.000558 0.699492 
-0.841382 0.000793 0.843274 
-0.698551 0.000795 0.966644 
-0.538820 0.000810 1.066483 
-0.365564 0.000785 1.140971 
-0.182834 0.000838 1.187586 
0.193409 0.000723 1.192818 
0.377369 0.000715 1.150792 
0.552430 0.000626 1.080003 
0.713773 0.000502 0.981808 
0.856921 0.000417 0.858785 
0.978746 0.000344 0.714651 
1.075958 0.000146 0.552849 
1.145840 0.000006 0.377544 
1.187123 -0.000093 0.193311 
1.181860 -0.000362 -0.182730 
1.135756 -0.000473 -0.365576 
1.062242 -0.000573 -0.539119 
0.963464 -0.000602 -0.699518 
0.841367 -0.000773 -0.843311 
0.698536 -0.000746 -0.966668 
0.538838 -0.000798 -1.066527 
0.365636 -0.000814 -1.140954 
0.182832 -0.000818 -1.187629 
-0.193364 -0.000709 -1.192771 
-0.377293 -0.000699 -1.150793 
-0.552434 -0.000658 -1.080071 
-0.713740 -0.000624 -0.981668 
-0.856876 -0.000412 -0.858725 
-0.978657 -0.000328 -0.714581 
-1.075840 -0.000125 -0.552781 
-1.145788 0.000005 -0.377518 
-1.187124 0.000081 -0.193295 
0.813180 -0.395225 -0.409451 
0.413297 -0.790663 -0.441835 
0.387241 -0.377109 -0.837373 
0.887935 -0.297558 -0.330737 
0.293791 -0.890996 -0.334354 
0.675056 -0.335029 -0.645228 
0.552425 -0.628092 -0.537357 
0.867932 -0.479160 -0.102726 
0.175133 -0.618710 -0.766061 
0.605208 -0.171645 -0.767666 
0.867184 -0.156247 -0.454325 
0.203103 -0.849543 -0.481414 
0.949441 -0.138327 -0.259203 
0.797261 -0.291883 -0.512133 
0.679315 -0.641224 -0.339637 
0.462146 -0.858731 -0.199714 
0.626692 -0.754243 -0.171244 
0.520418 -0.476002 -0.701067 
0.789800 -0.142351 -0.580833 
0.553769 -0.750306 -0.345967 
0.983489 -0.122796 -0.106348 
0.769542 -0.614645 -0.147154 
0.150845 -0.944752 -0.278344 
0.935473 -0.305778 -0.152570 
0.730309 -0.467960 -0.482302 
0.267628 -0.947083 -0.151870 
0.542588 -0.300286 -0.776467 
0.329035 -0.703072 -0.625556 
0.829942 -0.466952 -0.284642 
0.490860 -0.181729 -0.845573 
0.143021 -0.756278 -0.637356 
0.188818 -0.480368 -0.857313 
0.170153 -0.318416 -0.934261 
0.345509 -0.555243 -0.752840 
0.632100 -0.479633 -0.596992 
0.123880 -0.980071 -0.125886 
0.442648 -0.599950 -0.659697 
0.322108 -0.216262 -0.919632 
0.197726 -0.133679 -0.972024 
0.495185 0.578831 -0.634523 
0.500114 0.779651 -0.355209 
0.801752 0.369636 -0.448822 
0.393437 0.465279 -0.784522 
0.347287 0.880928 -0.299098 
0.283595 0.310723 -0.903596 
0.162762 0.161968 -0.973985 
0.753832 0.214089 -0.604822 
0.666152 0.533782 -0.502360 
0.500124 0.842400 -0.166250 
0.593920 0.174163 -0.774519 
0.179655 0.873012 -0.440165 
0.162174 0.472117 -0.864203 
0.550536 0.679217 -0.466677 
0.149352 0.949321 -0.254650 
0.382296 0.137566 -0.908863 
0.116477 0.320652 -0.940602 
0.621344 0.698767 -0.330829 
0.109239 0.621994 -0.772141 
0.162766 0.751055 -0.632420 
0.295250 0.620891 -0.718068 
0.853262 0.483288 -0.164338 
0.601649 0.390360 -0.683299 
0.371281 0.761767 -0.516328 
0.755621 0.550342 -0.330575 
0.124287 0.980861 -0.109332 
0.287363 0.941879 -0.137128 
0.704740 0.686661 -0.142479 
0.942012 0.145598 -0.278563 
0.465726 0.302731 -0.822911 
0.849680 0.407347 -0.309967 
0.869801 0.168789 -0.442968 
0.935936 0.290885 -0.169952 
0.890367 0.281610 -0.334177 
0.979996 0.127502 -0.124453 
0.718096 0.381302 -0.564838 
0.468419 0.461141 0.768585 
0.455656 0.803634 0.389037 
0.836052 0.411906 0.381257 
0.340740 0.315295 0.898689 
0.305597 0.902773 0.300460 
0.908662 0.337384 0.264112 
0.965427 0.168313 0.218846 
0.556653 0.632637 0.551971 
0.115278 0.481604 0.876481 
0.760523 0.167415 0.647843 
0.451243 0.161507 0.892902 
0.429739 0.881414 0.187647 
0.866237 0.471604 0.175822 
0.269944 0.142886 0.963738 
0.254328 0.952811 0.145543 
0.939396 0.321373 0.131609 
0.621952 0.160825 0.784989 
0.524039 0.293159 0.816265 
0.324194 0.629471 0.716805 
0.775543 0.618973 0.121221 
0.669643 0.721416 0.176416 
0.595285 0.495678 0.648741 
0.198110 0.752926 0.634091 
0.762401 0.577091 0.305906 
0.632501 0.684386 0.373966 
0.394601 0.719499 0.581434 
0.553254 0.801215 0.228147 
0.110667 0.982071 0.125673 
0.120150 0.124697 0.993087 
0.471806 0.595549 0.663644 
0.156899 0.613344 0.781668 
0.708602 0.507345 0.507573 
0.650172 0.351371 0.692032 
0.165317 0.310599 0.945326 
0.167027 0.945647 0.271560 
0.790771 0.320600 0.541805 
0.847049 0.141227 0.534270 
0.219552 0.863041 0.457427 
0.891686 0.233666 0.408846 
0.263682 0.477952 0.848733 
0.514527 -0.785780 0.346227 
0.337151 -0.371790 0.875218 
0.330003 -0.870624 0.361875 
0.156504 -0.463904 0.877362 
0.521912 -0.157917 0.853864 
0.427725 -0.881397 0.190525 
0.612719 -0.546224 0.584365 
0.274746 -0.173722 0.956137 
0.228955 -0.952910 0.180149 
0.914520 -0.373396 0.170023 
0.775076 -0.400710 0.506202 
0.738833 -0.658182 0.146604 
0.874510 -0.188648 0.467827 
0.957777 -0.181472 0.242832 
0.514809 -0.321909 0.808867 
0.570715 -0.675332 0.476104 
0.611925 -0.772321 0.167147 
0.710741 -0.636180 0.310160 
[...]
POINT_DATA 1108
SCALARS u float 1
LOOKUP_TABLE default
0.007814
0.007741
0.004675
0.004781
0.009421
0.009376
0.005209
0.005209
0.004446
0.004395
0.007235
0.007276
0.007918
0.007861
0.007581
0.007229
0.006569
0.005990
0.005345
0.004167
0.004132
0.004586
0.005288
0.005978
0.006800
0.007351
0.007847
0.007774
0.007473
0.007123
0.006604
0.006058
0.005311
0.004293
0.004267
0.004688
0.005275
0.005988
0.006810
0.007371
0.009007
0.008319
0.007415
0.006642
0.006166
0.005600
0.005212
0.004362
0.004454
0.005309
0.006512
0.007765
0.008831
0.009321
0.008987
0.008185
0.007464
0.006675
0.006134
0.005620
0.005226
0.004340
0.004549
0.005290
0.006527
0.007836
0.008793
0.009322
0.008718
0.010840
0.012874
0.014132
0.014313
0.013309
0.011386
0.007984
0.007938
0.008765
0.009567
0.009867
0.009096
0.008139
0.008662
0.010749
0.012769
0.014043
0.014362
0.013322
0.011368
0.007933
0.007903
0.008681
0.009523
0.009863
0.009137
0.008122
0.005272
0.005353
0.005300
0.005335
0.005333
0.005104
0.005100
0.004977
0.004762
0.004130
0.003841
0.003703
0.003568
0.003723
0.004179
0.004383
0.004657
0.004951
0.005290
0.005316
0.005257
0.005224
0.005192
0.005048
0.005074
0.004959
0.004784
0.004162
0.003965
0.003784
0.003648
0.003742
0.004239
0.004401
0.004658
0.004973
0.003988
0.003452
0.003280
0.003672
0.004606
0.005766
0.006596
0.007192
0.007397
0.006854
0.006162
0.005499
0.004923
0.004614
0.004434
0.004736
0.005006
0.004791
0.003940
0.003516
0.003026
0.003656
0.004617
0.005752
0.006600
0.007165
0.007400
0.006881
0.006222
0.005490
0.004901
0.004579
0.004442
0.004762
0.005014
0.004820
0.005976
0.007604
0.008967
0.009457
0.008905
0.008013
0.006611
0.005323
0.005492
0.009514
0.011580
0.013241
0.013859
0.013259
0.012230
0.010514
0.008131
0.005903
0.006031
0.007623
0.008999
0.009403
0.008894
0.008008
0.006575
0.005258
0.005509
0.009448
0.011537
0.013300
0.013733
0.013185
0.012119
0.010387
0.008080
0.005888
0.007965
0.005039
0.006973
0.007989
0.004419
0.008321
0.006404
0.006423
0.006171
0.008576
0.009053
0.004698
0.008201
0.008697
0.006468
0.004720
0.005410
0.006990
0.009437
0.005581
0.007592
0.006025
0.004270
0.007235
0.007796
0.004188
0.007870
0.005439
0.007176
0.007890
0.005425
0.006863
0.007528
0.006131
0.007529
0.004292
0.006131
0.007364
0.007761
0.009093
0.008221
0.009896
0.008487
0.007247
0.007938
0.008019
0.010102
0.009604
0.007280
0.009387
0.006798
0.007525
0.009073
0.006128
0.008191
0.007914
0.008655
0.007144
0.007060
0.007940
0.008364
0.009761
0.008141
0.009232
0.005490
0.006231
0.007890
0.008844
0.008896
0.009191
0.009846
0.008371
0.009328
0.008062
0.010015
0.012239
0.006892
0.010084
0.012436
0.005348
0.009147
0.009048
0.009681
0.009293
0.013499
0.013734
0.005768
0.008138
0.012241
0.005118
0.008238
0.014406
0.013648
0.009589
0.007384
0.007049
0.011665
0.007382
0.008457
0.008202
0.008447
0.006448
0.004586
0.010597
0.010514
0.008564
0.010659
0.013107
0.010730
0.004709
0.012144
0.012556
0.005748
0.010908
0.010755
0.005677
0.010916
0.004986
0.008784
0.013530
0.004503
0.009682
0.011621
0.004466
0.007471
0.010581
0.005866
0.011307
0.008850
0.012333
0.007407
0.005201
0.007039
0.010279
0.009845
0.006142
0.005209
0.006365
0.006669
0.008293
0.013078
0.005456
0.010134
0.008840
0.008162
0.011923
0.007571
0.007427
0.009045
0.013683
0.012604
0.009306
0.004593
0.009155
0.008276
0.009781
0.008600
0.007333
0.007927
0.007981
0.010049
0.009659
0.007358
0.009509
0.006801
0.007573
0.008934
0.006070
0.008225
0.007912
0.008648
0.007105
0.007052
0.007951
0.008205
0.009808
0.008159
0.009172
0.005487
0.006269
0.007823
0.008770
0.008894
0.009208
0.009803
0.008259
0.009264
0.008035
0.010078
0.012013
0.006815
0.009904
0.012450
0.005397
0.009080
0.008999
0.009708
0.009253
0.013486
0.013718
0.005798
0.008064
0.012193
0.005091
0.008167
0.014254
0.013618
0.009453
0.007271
0.007075
0.011613
0.007193
0.008415
0.008188
0.008414
0.006478
0.004635
0.010605
0.010283
0.008547
0.010592
0.012990
0.010765
0.004793
0.012032
0.012425
0.005785
0.010893
0.010750
0.005632
0.010890
0.004969
0.008797
0.013608
0.004447
0.009651
0.011619
0.004406
0.007459
0.010513
0.005852
0.011248
0.008796
0.012277
0.007428
0.005112
0.006996
0.010214
0.009786
0.006106
0.005221
0.006375
0.006677
0.008275
0.013038
0.005464
0.010110
0.008772
0.008061
0.011868
0.007498
0.007411
0.008991
0.013653
0.012632
0.009221
0.004535
0.007968
0.005037
0.007024
0.008025
0.004441
0.008324
0.006398
0.006434
0.006181
0.008618
0.009070
0.004553
0.008150
0.008693
0.006446
0.004652
0.005264
0.007003
0.009448
0.005542
0.007560
0.006000
0.004272
0.007249
0.007792
0.004123
0.007912
0.005510
0.007164
0.007946
0.005457
0.006903
0.007558
0.006188
0.007522
0.004239
0.006189
0.007394
0.007781
0.005794
0.008814
0.009297
0.006615
0.003427
0.006535
0.003656
0.009866
0.005257
0.004101
0.008906
0.012007
0.004859
0.006487
0.011046
0.003938
0.013141
0.006150
0.003942
0.005936
0.004553
0.003279
0.008582
0.004258
0.007752
0.007500
0.005170
0.003638
0.006464
0.004358
0.009821
0.010597
0.007148
0.006951
0.009112
0.003883
0.008175
0.012688
0.004222
0.012077
0.007875
0.013378
0.004896
0.010380
0.004000
0.008619
0.003559
0.004381
0.003384
0.005726
0.003318
0.008014
0.005554
0.004413
0.005326
0.005241
0.010148
0.011439
0.003727
0.012077
0.007417
0.010821
0.008566
0.008656
0.006363
0.006604
0.007920
0.006107
0.007321
0.005444
0.005398
0.005906
0.005446
0.009624
0.006422
0.005923
0.005802
0.009632
0.007753
0.005117
0.008236
0.007707
0.006345
0.006558
0.005772
0.008420
0.005278
0.008971
0.005995
0.006396
0.005401
0.006738
0.007692
0.007334
0.008969
0.009417
0.008371
0.009065
0.007594
0.005205
0.009477
0.006215
0.008604
0.005192
0.009002
0.006963
0.009722
0.006832
0.008978
0.007351
0.006404
0.007006
0.007716
0.008379
0.009352
0.005612
0.004852
0.007782
0.009770
0.007040
0.006184
0.006126
0.005454
0.005204
0.011644
0.007521
0.003989
0.011631
0.008242
0.010680
0.007004
0.003692
0.010401
0.006677
0.004046
0.005350
0.007323
0.005417
0.005316
0.008029
0.004391
0.004006
0.011103
0.013039
0.013688
0.011532
0.005601
0.008856
0.003579
0.009732
0.012305
0.008949
0.005600
0.009007
0.005344
0.007108
0.006309
0.008113
0.008927
0.008793
0.011595
0.004832
0.006277
0.004682
0.004754
0.005083
0.004627
0.009467
0.006539
0.010372
0.006921
0.012761
0.013662
0.012790
0.010087
0.009521
0.011017
0.005486
0.008711
0.009485
0.007516
0.004066
0.013008
0.004286
0.003358
0.004322
0.007338
0.005545
0.004163
0.005031
0.007204
0.004942
0.006459
0.005267
0.006351
0.004067
0.005465
0.003926
0.004929
0.004689
0.005212
0.003290
0.004303
0.008262
0.006662
0.007013
0.008857
0.005413
0.005253
0.004141
0.006409
0.005378
0.007844
0.005949
0.005369
0.004692
0.003581
0.003945
0.004713
0.005546
0.006431
0.005464
0.007373
0.005294
0.004352
0.004419
0.003899
0.004631
0.003607
0.004373
0.004405
0.006213
0.004611
0.006479
0.008051
0.008886
0.005923
0.008108
0.005995
0.007281
0.005355
0.006157
0.006444
0.004916
0.003946
0.008246
0.003894
0.004003
0.006608
0.010329
0.011394
0.007225
0.003675
0.006980
0.003782
0.005551
0.004361
0.006437
0.012728
0.013321
0.008218
0.004286
0.011294
0.007840
0.013652
0.004865
0.006403
0.005314
0.004357
0.003463
0.008830
0.012673
0.008703
0.005666
0.004134
0.003856
0.006647
0.011254
0.009489
0.010989
0.012163
0.009007
0.008526
0.010457
0.004945
0.008809
0.004883
0.012909
0.012747
0.009666
0.013691
0.006246
0.010979
0.005277
0.009151
0.003771
0.004844
0.004794
0.006470
0.004065
0.006922
0.008829
0.004319
0.005472
0.011004
0.006853
0.011106
0.004596
0.009621
0.008611
0.007323
0.005517
0.004137
0.004984
0.007192
0.004922
0.006462
0.004047
0.005253
0.006380
0.004089
0.004005
0.005471
0.003794
0.004690
0.005250
0.003265
0.004337
0.008259
0.006614
0.006957
0.008846
0.005404
0.005252
0.003600
0.006403
0.005330
0.007867
0.005946
0.005373
0.004842
0.004578
0.005658
0.006457
0.005394
0.007371
0.005229
0.004369
0.004522
0.003820
0.005153
0.003571
0.004445
0.004347
0.006216
0.004570
0.006502
0.008020
0.008855
0.005858
0.008099
0.005955
0.007285
0.005376
0.006154
0.004825
0.006477
0.004533
0.008214
0.003598
0.004084
0.004024
0.005782
0.008814
0.010045
0.006655
0.003447
0.006568
0.003701
0.005277
0.004161
0.012075
0.004863
0.012500
0.006472
0.011111
0.003935
0.013030
0.006143
0.003977
0.005980
0.004571
0.003319
0.008658
0.004264
0.011918
0.007490
0.005179
0.003685
0.006494
0.004397
0.009696
0.007910
0.010669
0.010950
0.007221
0.006952
0.009203
0.003873
0.008251
0.012749
0.004208
0.011585
0.007879
0.013394
0.004868
0.010452
0.003991
0.008701
0.003549
0.004426
0.003436
0.005746
0.003344
0.008072
0.005528
0.004454
0.005355
0.010288
0.005255
0.010172
0.003756
0.008839
0.008252
0.007738
0.009127
0.008769
0.006624
0.005688
0.006103
0.005317
0.007574
0.005373
0.005631
0.006238
0.007622
0.009454
0.009660
0.006447
0.007901
0.006168
0.009531
0.006555
0.007100
0.005720
0.005190
0.005997
0.005862
0.008738
0.008928
0.005797
0.005212
0.005429
0.005260
0.009206
0.008818
0.009745
0.009349
0.008748
0.007290
0.007632
0.006125
0.008861
0.007783
0.009529
0.006188
0.009652
0.007537
0.008312
0.007044
0.006658
0.006304
0.005264
0.006602
0.005628
0.008370
0.008506
0.005958
0.004876
0.008957
0.008198
0.007744
0.005178
0.006310
0.007732
0.005861
0.006819
0.006989
0.010893
0.007682
0.008388
0.009592
0.009382
0.003478
0.001805
0.006962
0.006505
0.007896
0.006997
0.011486
0.006666
0.007178
0.007712
0.011686
0.008895
0.001611
0.004504
0.005580
0.005364
0.006750
0.010839
0.009211
0.010319
0.008963
0.009595
0.007832
0.011616
0.011186
0.010095
0.009634
0.006257
0.011852
0.011630
0.004505
0.009189
0.004093
0.008902
0.013343
0.007367
0.009470
0.007773
0.012749
0.005398
0.005448
0.011515
0.005869
0.006892
0.010662
0.012845
0.008899
0.008646
0.007878
0.008546
0.006241
0.008707
0.010198
0.008712
0.008790
0.007597
0.008181
0.008408
0.008791
0.011084
0.013126
0.006772
0.009227
0.010917
0.011106
0.011128
0.012396
0.007517
0.009030
0.010220
0.012317
0.011054
0.010542
0.009696
0.011259
0.010628
0.013054
0.011650
0.009424
0.004926
0.005423
0.004277
0.007008
0.005018
0.004877
0.008493
0.009576
0.008092
0.008356
0.008933
0.009189
0.004393
0.003368
0.008716
0.002625
