# vtk DataFile Version 2.0
Unstructured Grid Example
ASCII
DATASET UNSTRUCTURED_GRID
POINTS 1108 float
0.997209 -0.001069 0.026350 
-0.997208 0.001037 -0.026102 
-0.001368 0.984712 0.004024 
0.001182 -0.984367 -0.004182 
0.025930 0.004053 1.018263 
-0.025819 -0.004201 -1.018115 
1.197335 -0.000743 0.017462 
-1.197377 0.000473 -0.017475 
-0.000969 1.185193 0.002730 
0.000892 -1.185409 -0.002962 
0.017319 0.002735 1.217188 
-0.017410 -0.002837 -1.217281 
0.977638 0.191940 0.026500 
0.920150 0.377002 0.025800 
0.826981 0.547199 0.023910 
0.702168 0.696347 0.021490 
0.550808 0.818437 0.017451 
0.378873 0.909163 0.013495 
0.192510 0.965255 0.009015 
-0.195178 0.966660 -0.000683 
-0.381363 0.911213 -0.005869 
-0.553690 0.820796 -0.011168 
-0.704639 0.698912 -0.015775 
-0.828441 0.549830 -0.019220 
-0.921451 0.379475 -0.022723 
-0.978200 0.193981 -0.024790 
-0.977623 -0.192153 -0.026281 
-0.920493 -0.377207 -0.025585 
-0.827649 -0.547499 -0.023736 
-0.702796 -0.696525 -0.021302 
-0.551137 -0.818425 -0.017680 
-0.379032 -0.909135 -0.013856 
-0.192528 -0.965352 -0.008953 
0.194806 -0.966234 0.000698 
0.381297 -0.910682 0.005799 
0.553574 -0.820599 0.011446 
0.704686 -0.698872 0.015709 
0.828480 -0.549763 0.019245 
0.921552 -0.379528 0.022778 
0.978186 -0.194064 0.024858 
0.025564 -0.190045 0.996769 
0.024420 -0.376201 0.936482 
0.022038 -0.546826 0.839898 
0.019074 -0.695889 0.711406 
0.015512 -0.817499 0.557008 
0.010812 -0.908298 0.381461 
0.006023 -0.964419 0.192131 
-0.003906 -0.967476 -0.200259 
-0.008814 -0.913997 -0.389970 
-0.013534 -0.825375 -0.565787 
-0.017457 -0.704618 -0.720427 
-0.020692 -0.555879 -0.847785 
-0.023450 -0.384805 -0.942421 
-0.024994 -0.198419 -0.999886 
-0.025530 0.190113 -0.996711 
-0.024145 0.376230 -0.936006 
-0.022231 0.546766 -0.839835 
-0.019188 0.695942 -0.711624 
-0.015465 0.817625 -0.557147 
-0.010992 0.908330 -0.381621 
-0.006251 0.964438 -0.192216 
0.003689 0.967463 0.200181 
0.008914 0.913852 0.390319 
0.013543 0.825449 0.565701 
0.017599 0.704508 0.720305 
0.020880 0.555807 0.847939 
0.023530 0.384662 0.942124 
0.025163 0.198268 0.999694 
0.988279 -0.000256 0.223710 
0.940952 0.000641 0.415264 
0.856215 0.001246 0.591556 
0.735714 0.001895 0.745554 
0.585385 0.002859 0.869711 
0.411781 0.003330 0.958265 
0.222348 0.003673 1.007927 
-0.169488 0.004038 0.988681 
-0.356235 0.004425 0.921287 
-0.528423 0.003870 0.819940 
-0.679664 0.003612 0.690133 
-0.805687 0.003388 0.534469 
-0.903555 0.002362 0.359567 
-0.968139 0.001768 0.170598 
-0.988314 0.000201 -0.223508 
-0.940739 -0.000624 -0.415026 
-0.855747 -0.001169 -0.591449 
-0.735394 -0.001884 -0.745418 
-0.585164 -0.002640 -0.870110 
-0.411796 -0.003255 -0.958318 
-0.222284 -0.003745 -1.007895 
0.169708 -0.004278 -0.988684 
0.356347 -0.004422 -0.921374 
0.528698 -0.004025 -0.820082 
0.679863 -0.003689 -0.690114 
0.805663 -0.003348 -0.534515 
0.903530 -0.002543 -0.359423 
0.968389 -0.001891 -0.170543 
1.182231 0.185670 0.017519 
1.137597 0.367281 0.017437 
1.064522 0.539673 0.016597 
0.965741 0.698226 0.015854 
0.843244 0.839016 0.014465 
0.700004 0.959533 0.012004 
0.540098 1.056032 0.010198 
0.367215 1.126713 0.007779 
0.185514 1.170267 0.005709 
-0.187385 1.171216 -0.000238 
-0.369046 1.128797 -0.003357 
-0.542197 1.058115 -0.005311 
-0.701924 0.962000 -0.007561 
-0.845461 0.841395 -0.009969 
-0.968110 0.699850 -0.012791 
-1.066143 0.541416 -0.014161 
-1.138938 0.368648 -0.015482 
-1.182910 0.186871 -0.016621 
-1.182336 -0.185659 -0.017599 
-1.137931 -0.367412 -0.017398 
-1.065054 -0.539847 -0.016633 
-0.966263 -0.698550 -0.015731 
-0.843265 -0.839249 -0.014024 
-0.700027 -0.959753 -0.011947 
-0.540238 -1.056009 -0.010080 
-0.367299 -1.126789 -0.007822 
-0.185533 -1.170192 -0.005732 
0.187168 -1.171113 0.000181 
0.368858 -1.128363 0.003266 
0.541908 -1.057915 0.005394 
0.701749 -0.961837 0.007726 
0.845337 -0.841502 0.010086 
0.968067 -0.699921 0.013039 
1.066146 -0.541481 0.014240 
1.138963 -0.368723 0.015497 
1.182889 -0.187014 0.016699 
-0.002264 -1.172271 -0.190921 
-0.004605 -1.131126 -0.374456 
-0.007265 -1.062599 -0.550031 
-0.009198 -0.967732 -0.713164 
-0.011745 -0.848456 -0.858845 
-0.014024 -0.707742 -0.984256 
-0.015017 -0.548077 -1.085479 
-0.016064 -0.374314 -1.159308 
-0.016964 -0.190824 -1.203470 
-0.017132 0.185064 -1.200733 
-0.016676 0.368079 -1.153588 
-0.015834 0.540644 -1.078175 
-0.014604 0.699147 -0.976067 
-0.012856 0.839954 -0.851071 
-0.010382 0.959945 -0.704744 
-0.008475 1.055685 -0.542872 
-0.006572 1.125766 -0.368560 
-0.003500 1.169597 -0.184918 
0.002386 1.172498 0.191050 
0.004565 1.130932 0.374657 
0.006726 1.062973 0.549411 
0.009152 0.967827 0.713167 
0.011746 0.848347 0.858896 
0.014275 0.707717 0.983921 
0.015142 0.548022 1.085393 
0.016196 0.374289 1.159073 
0.017037 0.190911 1.203398 
0.017309 -0.185213 1.200698 
0.016678 -0.367935 1.153893 
0.015815 -0.540818 1.078227 
0.014660 -0.699258 0.975790 
0.012778 -0.839995 0.850864 
0.010321 -0.959860 0.704578 
0.008438 -1.055573 0.542766 
0.006523 -1.125737 0.368413 
0.003429 -1.169532 0.184633 
-1.173726 0.001141 0.171053 
-1.122708 0.001257 0.352933 
-1.045705 0.001914 0.525551 
-0.945677 0.001893 0.685486 
-0.824277 0.002690 0.830698 
-0.682293 0.002697 0.956646 
-0.524532 0.002749 1.059959 
-0.352983 0.002664 1.140259 
-0.171134 0.002844 1.193235 
0.207026 0.002453 1.210992 
0.393044 0.002426 1.173592 
0.570723 0.002125 1.105843 
0.733955 0.001703 1.008112 
0.877011 0.001415 0.883337 
0.997717 0.001168 0.736935 
1.092115 0.000496 0.572143 
1.156785 0.000021 0.393639 
1.191664 -0.000316 0.206691 
1.173802 -0.001227 -0.170781 
1.122562 -0.001607 -0.353021 
1.045569 -0.001945 -0.525549 
0.945853 -0.002044 -0.685575 
0.824224 -0.002623 -0.830821 
0.682242 -0.002532 -0.956727 
0.524595 -0.002709 -1.060108 
0.353225 -0.002763 -1.140204 
0.171128 -0.002775 -1.193382 
-0.206870 -0.002406 -1.210832 
-0.392786 -0.002371 -1.173595 
-0.570736 -0.002232 -1.106076 
-0.733843 -0.002116 -1.007637 
-0.876859 -0.001400 -0.883135 
-0.997417 -0.001112 -0.736697 
-1.091715 -0.000424 -0.571915 
-1.156610 0.000017 -0.393550 
-1.191669 0.000275 -0.206636 
0.799645 -0.391582 -0.396524 
0.403685 -0.783918 -0.439075 
0.370627 -0.376260 -0.836016 
0.875826 -0.295327 -0.316105 
0.287232 -0.882744 -0.333469 
0.658035 -0.332832 -0.635115 
0.539376 -0.622701 -0.531382 
0.862816 -0.475165 -0.088788 
0.161530 -0.616614 -0.771428 
0.586561 -0.172025 -0.759086 
0.851477 -0.155947 -0.439399 
0.194116 -0.843115 -0.483507 
0.938604 -0.138034 -0.242836 
0.781274 -0.289621 -0.498991 
0.668902 -0.635016 -0.330007 
0.456901 -0.850032 -0.194766 
0.620677 -0.746930 -0.162408 
0.504808 -0.472963 -0.695864 
0.771626 -0.142416 -0.567415 
0.544400 -0.743090 -0.339750 
0.977701 -0.122643 -0.089121 
0.763381 -0.608954 -0.135421 
0.146092 -0.935875 -0.280106 
0.928415 -0.303641 -0.136900 
0.715886 -0.463407 -0.471369 
0.264540 -0.937610 -0.150762 
0.524931 -0.299324 -0.769964 
0.316819 -0.698572 -0.625413 
0.819306 -0.462696 -0.271841 
0.472699 -0.182423 -0.840434 
0.131602 -0.752320 -0.642104 
0.173439 -0.479741 -0.863059 
0.153516 -0.319364 -0.941119 
0.331070 -0.552626 -0.752614 
0.616650 -0.475583 -0.588646 
0.122163 -0.970038 -0.127271 
0.428911 -0.595941 -0.656439 
0.304550 -0.217385 -0.920703 
0.180129 -0.135767 -0.977602 
0.478826 0.568417 -0.624638 
0.488860 0.767449 -0.344638 
0.785511 0.362089 -0.433316 
0.376117 0.456787 -0.778143 
0.338631 0.868299 -0.290941 
0.265575 0.304761 -0.902725 
0.144790 0.157974 -0.979418 
0.735174 0.208382 -0.590535 
0.650333 0.523833 -0.488970 
0.493029 0.830973 -0.155171 
0.574598 0.168955 -0.764298 
0.169497 0.860904 -0.436289 
0.145618 0.465177 -0.865697 
0.536536 0.667332 -0.455082 
0.142914 0.936871 -0.250319 
0.363450 0.133067 -0.905847 
0.099060 0.315518 -0.946011 
0.609605 0.687737 -0.317799 
0.094277 0.613783 -0.773219 
0.149566 0.740727 -0.630258 
0.279619 0.611032 -0.713624 
0.844652 0.476151 -0.147731 
0.583198 0.381939 -0.671698 
0.358297 0.749595 -0.508387 
0.742425 0.540969 -0.315530 
0.120798 0.969016 -0.104838 
0.282137 0.930002 -0.129772 
0.697368 0.677260 -0.127850 
0.930179 0.142143 -0.261351 
0.447022 0.295888 -0.815372 
0.836580 0.400067 -0.293860 
0.853280 0.164190 -0.426800 
0.927177 0.286216 -0.152545 
0.876677 0.275948 -0.317470 
0.973065 0.124980 -0.106620 
0.700461 0.373190 -0.550770 
0.485719 0.463985 0.792058 
0.462300 0.799991 0.403693 
0.846391 0.411731 0.403070 
0.359646 0.318418 0.921471 
0.309301 0.896320 0.310878 
0.915364 0.336158 0.284922 
0.971184 0.167565 0.239712 
0.568707 0.632873 0.571763 
0.131121 0.483180 0.892015 
0.779029 0.169134 0.674277 
0.471748 0.164353 0.918441 
0.431113 0.873957 0.199187 
0.869196 0.468610 0.194843 
0.289385 0.145705 0.985480 
0.254828 0.943584 0.153586 
0.941432 0.319110 0.151092 
0.642526 0.163325 0.812551 
0.543711 0.296249 0.842166 
0.338275 0.630585 0.734898 
0.775869 0.613972 0.138171 
0.671192 0.716137 0.192368 
0.610781 0.497631 0.671889 
0.209583 0.751780 0.647483 
0.768814 0.574971 0.324989 
0.640029 0.682215 0.391969 
0.405783 0.718935 0.598272 
0.555824 0.795604 0.242294 
0.111155 0.972274 0.130601 
0.138703 0.127414 1.010172 
0.486094 0.597000 0.684313 
0.171005 0.613994 0.796528 
0.721458 0.508070 0.529602 
0.668085 0.353781 0.717679 
0.183182 0.313087 0.963613 
0.170361 0.937774 0.278907 
0.806483 0.321978 0.566227 
0.863599 0.142407 0.559332 
0.227024 0.858679 0.468128 
0.903793 0.233947 0.431980 
0.280423 0.480409 0.868139 
0.521175 -0.780044 0.356600 
0.355421 -0.369578 0.893768 
0.336478 -0.862689 0.368005 
0.173242 -0.459980 0.889468 
0.542475 -0.156470 0.878845 
0.430505 -0.873360 0.197149 
0.626878 -0.544463 0.602630 
0.294014 -0.171364 0.976061 
0.231967 -0.942891 0.182348 
0.918230 -0.371564 0.187421 
0.789107 -0.399721 0.527268 
0.741020 -0.653891 0.159794 
0.888841 -0.188042 0.490780 
0.964440 -0.180844 0.262932 
0.533878 -0.320654 0.831370 
0.580925 -0.671878 0.490181 
0.614391 -0.766355 0.177794 
0.717772 -0.632592 0.325046 
[...]
POINT_DATA 1108
SCALARS u float 1
LOOKUP_TABLE default
0.026519
0.026271
0.015868
0.016226
0.031974
0.031819
0.017679
0.017677
0.015088
0.014915
0.024553
0.024694
0.026872
0.026680
0.025728
0.024535
0.022296
0.020327
0.018141
0.014142
0.014022
0.015562
0.017947
0.020287
0.023076
0.024949
0.026633
0.026383
0.025360
0.024173
0.022414
0.020561
0.018025
0.014571
0.014482
0.015911
0.017901
0.020323
0.023113
0.025015
0.030569
0.028234
0.025164
0.022542
0.020925
0.019005
0.017689
0.014802
0.015114
0.018019
0.022099
0.026353
0.029970
0.031632
0.030499
0.027779
0.025332
0.022655
0.020817
0.019072
0.017736
0.014731
0.015437
0.017952
0.022151
0.026595
0.029840
0.031635
0.029586
0.036788
0.043691
0.047960
0.048575
0.045168
0.038641
0.027095
0.026942
0.029747
0.032470
0.033488
0.030871
0.027621
0.029399
0.036478
0.043336
0.047660
0.048743
0.045213
0.038580
0.026925
0.026823
0.029462
0.032320
0.033474
0.031010
0.027564
0.017891
0.018167
0.017989
0.018105
0.018101
0.017321
0.017309
0.016892
0.016163
0.014016
0.013036
0.012569
0.012110
0.012636
0.014182
0.014876
0.015807
0.016803
0.017954
0.018040
0.017842
0.017731
0.017621
0.017131
0.017220
0.016829
0.016237
0.014125
0.013456
0.012842
0.012381
0.012699
0.014387
0.014936
0.015807
0.016876
0.013535
0.011717
0.011133
0.012463
0.015633
0.019569
0.022385
0.024407
0.025104
0.023260
0.020914
0.018663
0.016709
0.015660
0.015047
0.016074
0.016988
0.016259
0.013370
0.011932
0.010270
0.012407
0.015669
0.019520
0.022398
0.024318
0.025113
0.023351
0.021116
0.018634
0.016632
0.015542
0.015075
0.016162
0.017016
0.016359
0.020283
0.025807
0.030432
0.032094
0.030221
0.027193
0.022437
0.018064
0.018638
0.032289
0.039301
0.044936
0.047034
0.044999
0.041508
0.035683
0.027595
0.020034
0.020469
0.025871
0.030541
0.031911
0.030185
0.027178
0.022315
0.017843
0.018696
0.032064
0.039156
0.045139
0.046607
0.044747
0.041130
0.035250
0.027423
0.019984
0.027033
0.017102
0.023663
0.027112
0.014998
0.028241
0.021735
0.021798
0.020945
0.029105
0.030723
0.015944
0.027833
0.029515
0.021950
0.016020
0.018361
0.023723
0.032028
0.018942
0.025766
0.020447
0.014492
0.024553
0.026459
0.014213
0.026711
0.018458
0.024355
0.026778
0.018410
0.023292
0.025549
0.020806
0.025550
0.014565
0.020807
0.024991
0.026339
0.030859
0.027901
0.033584
0.028804
0.024596
0.026939
0.027214
0.034285
0.032593
0.024705
0.031857
0.023072
0.025540
0.030792
0.020798
0.027800
0.026860
0.029372
0.024244
0.023959
0.026947
0.028386
0.033126
0.027630
0.031330
0.018631
0.021147
0.026778
0.030015
0.030191
0.031191
0.033415
0.028409
0.031657
0.027359
0.033988
0.041538
0.023391
0.034223
0.042206
0.018151
0.031044
0.030706
0.032857
0.031537
0.045812
0.046609
0.019576
0.027620
0.041543
0.017368
0.027958
0.048891
0.046320
0.032543
0.025059
0.023922
0.039590
0.025053
0.028700
0.027835
0.028667
0.021882
0.015563
0.035963
0.035681
0.029063
0.036176
0.044482
0.036417
0.015983
0.041216
0.042613
0.019509
0.037021
0.036502
0.019268
0.037046
0.016922
0.029810
0.045918
0.015282
0.032860
0.039438
0.015156
0.025355
0.035911
0.019907
0.038373
0.030035
0.041856
0.025136
0.017653
0.023889
0.034885
0.033412
0.020845
0.017678
0.021603
0.022634
0.028144
0.044385
0.018516
0.034393
0.030001
0.027700
0.040465
0.025693
0.025206
0.030699
0.046436
0.042776
0.031584
0.015589
0.031071
0.028086
0.033194
0.029186
0.024886
0.026903
0.027087
0.034103
0.032782
0.024970
0.032273
0.023082
0.025701
0.030321
0.020600
0.027915
0.026851
0.029349
0.024113
0.023932
0.026983
0.027848
0.033286
0.027689
0.031130
0.018622
0.021275
0.026548
0.029764
0.030186
0.031249
0.033269
0.028031
0.031440
0.027269
0.034204
0.040770
0.023129
0.033613
0.042253
0.018316
0.030816
0.030542
0.032948
0.031404
0.045767
0.046556
0.019678
0.027368
0.041381
0.017277
0.027716
0.048374
0.046218
0.032081
0.024675
0.024011
0.039413
0.024413
0.028557
0.027790
0.028555
0.021986
0.015731
0.035990
0.034897
0.029007
0.035949
0.044086
0.036534
0.016268
0.040835
0.042169
0.019632
0.036970
0.036485
0.019115
0.036959
0.016865
0.029856
0.046184
0.015094
0.032754
0.039431
0.014951
0.025313
0.035679
0.019861
0.038174
0.029852
0.041664
0.025209
0.017348
0.023743
0.034664
0.033210
0.020723
0.017720
0.021637
0.022659
0.028082
0.044249
0.018543
0.034312
0.029770
0.027359
0.040277
0.025447
0.025150
0.030514
0.046337
0.042869
0.031293
0.015391
0.027044
0.017096
0.023837
0.027235
0.015072
0.028250
0.021713
0.021837
0.020979
0.029246
0.030780
0.015451
0.027661
0.029503
0.021875
0.015788
0.017865
0.023768
0.032064
0.018809
0.025657
0.020362
0.014497
0.024603
0.026446
0.013994
0.026852
0.018701
0.024313
0.026968
0.018521
0.023426
0.025652
0.021002
0.025527
0.014385
0.021003
0.025095
0.026406
0.019663
0.029914
0.031552
0.022449
0.011632
0.022178
0.012409
0.033484
0.017843
0.013917
0.030227
0.040750
0.016491
0.022016
0.037488
0.013364
0.044599
0.020873
0.013380
0.020146
0.015452
0.011129
0.029125
0.014449
0.026310
0.025453
0.017547
0.012348
0.021938
0.014791
0.033332
0.035966
0.024260
0.023589
0.030925
0.013180
0.027746
0.043062
0.014328
0.040988
0.026725
0.045403
0.016615
0.035229
0.013575
0.029250
0.012080
0.014868
0.011484
0.019435
0.011259
0.027196
0.018848
0.014978
0.018077
0.017786
0.034440
0.038821
0.012650
0.040987
0.025172
0.036726
0.029070
0.029378
0.021596
0.022412
0.026878
0.020727
0.024846
0.018477
0.018320
0.020045
0.018483
0.032664
0.021796
0.020103
0.019691
0.032689
0.026312
0.017365
0.027951
0.026155
0.021533
0.022257
0.019589
0.028575
0.017914
0.030447
0.020345
0.021705
0.018330
0.022866
0.026106
0.024889
0.030439
0.031959
0.028410
0.030765
0.025771
0.017666
0.032162
0.021092
0.029200
0.017621
0.030552
0.023631
0.032995
0.023188
0.030470
0.024948
0.021734
0.023778
0.026185
0.028438
0.031738
0.019046
0.016468
0.026412
0.033156
0.023893
0.020987
0.020791
0.018511
0.017663
0.039517
0.025524
0.013539
0.039472
0.027970
0.036247
0.023771
0.012531
0.035299
0.022660
0.013731
0.018155
0.024854
0.018384
0.018042
0.027249
0.014903
0.013595
0.037681
0.044254
0.046454
0.039137
0.019008
0.030057
0.012148
0.033029
0.041762
0.030372
0.019006
0.030568
0.018137
0.024125
0.021412
0.027533
0.030296
0.029841
0.039351
0.016399
0.021303
0.015890
0.016133
0.017252
0.015702
0.032128
0.022193
0.035200
0.023488
0.043309
0.046367
0.043406
0.034234
0.032314
0.037390
0.018619
0.029565
0.032190
0.025508
0.013798
0.044146
0.014547
0.011395
0.014669
0.024903
0.018820
0.014128
0.017075
0.024449
0.016774
0.021920
0.017875
0.021554
0.013801
0.018548
0.013324
0.016727
0.015913
0.017688
0.011166
0.014603
0.028039
0.022608
0.023799
0.030059
0.018371
0.017828
0.014055
0.021751
0.018253
0.026622
0.020188
0.018221
0.015923
0.012155
0.013390
0.015996
0.018822
0.021827
0.018543
0.025023
0.017965
0.014771
0.014996
0.013232
0.015717
0.012240
0.014843
0.014949
0.021085
0.015649
0.021987
0.027324
0.030158
0.020102
0.027518
0.020345
0.024710
0.018175
0.020895
0.021870
0.016684
0.013393
0.027986
0.013215
0.013587
0.022426
0.035056
0.038667
0.024521
0.012473
0.023689
0.012836
0.018838
0.014800
0.021845
0.043197
0.045208
0.027891
0.014545
0.038331
0.026608
0.046331
0.016512
0.021730
0.018035
0.014788
0.011752
0.029967
0.043009
0.029537
0.019229
0.014029
0.013086
0.022559
0.038193
0.032204
0.037293
0.041280
0.030568
0.028934
0.035490
0.016783
0.029898
0.016572
0.043812
0.043260
0.032806
0.046465
0.021197
0.037261
0.017911
0.031057
0.012798
0.016439
0.016271
0.021957
0.013794
0.023493
0.029964
0.014658
0.018572
0.037345
0.023258
0.037693
0.015598
0.032652
0.029225
0.024852
0.018722
0.014042
0.016916
0.024409
0.016705
0.021930
0.013734
0.017827
0.021653
0.013878
0.013592
0.018569
0.012875
0.015916
0.017816
0.011080
0.014720
0.028029
0.022447
0.023611
0.030022
0.018339
0.017826
0.012217
0.021732
0.018090
0.026698
0.020179
0.018236
0.016432
0.015536
0.019204
0.021914
0.018306
0.025014
0.017745
0.014826
0.015348
0.012965
0.017489
0.012119
0.015084
0.014753
0.021097
0.015508
0.022066
0.027217
0.030053
0.019882
0.027486
0.020210
0.024724
0.018245
0.020886
0.016376
0.021983
0.015384
0.027878
0.012212
0.013861
0.013655
0.019624
0.029912
0.034090
0.022587
0.011699
0.022292
0.012560
0.017909
0.014122
0.040979
0.016505
0.042423
0.021964
0.037710
0.013355
0.044221
0.020847
0.013497
0.020294
0.015515
0.011266
0.029383
0.014472
0.040447
0.025420
0.017578
0.012507
0.022040
0.014921
0.032907
0.026845
0.036209
0.037161
0.024506
0.023593
0.031232
0.013145
0.028003
0.043268
0.014283
0.039316
0.026741
0.045457
0.016520
0.035472
0.013545
0.029530
0.012043
0.015023
0.011660
0.019503
0.011350
0.027395
0.018760
0.015115
0.018175
0.034914
0.017833
0.034520
0.012748
0.029998
0.028005
0.026261
0.030977
0.029761
0.022480
0.019302
0.020712
0.018043
0.025705
0.018235
0.019110
0.021172
0.025868
0.032084
0.032783
0.021880
0.026814
0.020934
0.032347
0.022247
0.024095
0.019412
0.017615
0.020353
0.019896
0.029656
0.030299
0.019675
0.017688
0.018424
0.017852
0.031245
0.029928
0.033073
0.031729
0.029689
0.024741
0.025903
0.020788
0.030071
0.026414
0.032338
0.021000
0.032756
0.025580
0.028208
0.023907
0.022595
0.021395
0.017866
0.022408
0.019101
0.028405
0.028868
0.020220
0.016548
0.030398
0.027822
0.026281
0.017572
0.021413
0.026242
0.019892
0.023143
0.023718
0.036969
0.026070
0.028468
0.032552
0.031841
0.011804
0.006127
0.023628
0.022078
0.026799
0.023746
0.038982
0.022624
0.024361
0.026174
0.039660
0.030187
0.005467
0.015286
0.018936
0.018203
0.022909
0.036787
0.031261
0.035020
0.030420
0.032563
0.026582
0.039423
0.037962
0.034259
0.032698
0.021235
0.040224
0.039469
0.015288
0.031186
0.013891
0.030210
0.045284
0.025003
0.032141
0.026379
0.043269
0.018320
0.018490
0.039081
0.019917
0.023392
0.036186
0.043594
0.030203
0.029344
0.026737
0.029003
0.021181
0.029548
0.034611
0.029566
0.029833
0.025783
0.027765
0.028536
0.029835
0.037618
0.044548
0.022983
0.031315
0.037049
0.037693
0.037766
0.042070
0.025510
0.030646
0.034686
0.041801
0.037516
0.035778
0.032907
0.038211
0.036069
0.044304
0.039540
0.031984
0.016719
0.018404
0.014516
0.023783
0.017030
0.016553
0.028825
0.032500
0.027464
0.028359
0.030318
0.031187
0.014910
0.011430
0.029580
0.008910
