# vtk DataFile Version 2.0
Unstructured Grid Example
ASCII
DATASET UNSTRUCTURED_GRID
POINTS 1108 float
0.999669 -0.000127 0.003128 
-0.999669 0.000123 -0.003098 
-0.000162 0.998185 0.000478 
0.000140 -0.998144 -0.000496 
0.003078 0.000481 1.002168 
-0.003065 -0.000499 -1.002150 
1.199684 -0.000088 0.002073 
-1.199689 0.000056 -0.002074 
-0.000115 1.198242 0.000324 
0.000106 -1.198268 -0.000352 
0.002056 0.000325 1.202040 
-0.002066 -0.000337 -1.202051 
0.980412 0.194716 0.003145 
0.923437 0.382009 0.003062 
0.830937 0.554577 0.002838 
0.706521 0.705830 0.002551 
0.555005 0.829923 0.002071 
0.382231 0.922133 0.001602 
0.194784 0.978942 0.001070 
-0.195101 0.979109 -0.000081 
-0.382527 0.922376 -0.000697 
-0.555347 0.830203 -0.001326 
-0.706814 0.706134 -0.001872 
-0.831110 0.554889 -0.002281 
-0.923591 0.382303 -0.002697 
-0.980478 0.194959 -0.002942 
-0.980410 -0.194742 -0.003119 
-0.923478 -0.382033 -0.003037 
-0.831016 -0.554612 -0.002817 
-0.706595 -0.705851 -0.002528 
-0.555044 -0.829921 -0.002098 
-0.382250 -0.922129 -0.001645 
-0.194786 -0.978953 -0.001063 
0.195057 -0.979058 0.000083 
0.382519 -0.922313 0.000688 
0.555333 -0.830179 0.001359 
0.706819 -0.706129 0.001865 
0.831115 -0.554881 0.002284 
0.923603 -0.382309 0.002704 
0.980477 -0.194968 0.002951 
0.003034 -0.194492 0.982682 
0.002899 -0.381914 0.925375 
0.002616 -0.554532 0.832470 
0.002264 -0.705775 0.707617 
0.001841 -0.829811 0.555741 
0.001283 -0.922030 0.382538 
0.000715 -0.978843 0.194739 
-0.000464 -0.979206 -0.195704 
-0.001046 -0.922707 -0.383548 
-0.001606 -0.830746 -0.556783 
-0.002072 -0.706811 -0.708688 
-0.002456 -0.555607 -0.833406 
-0.002783 -0.382935 -0.926080 
-0.002967 -0.195485 -0.983052 
-0.003030 0.194500 -0.982676 
-0.002866 0.381917 -0.925319 
-0.002639 0.554525 -0.832463 
-0.002278 0.705782 -0.707643 
-0.001836 0.829826 -0.555757 
-0.001305 0.922034 -0.382557 
-0.000742 0.978845 -0.194749 
0.000438 0.979204 0.195695 
0.001058 0.922689 0.383590 
0.001607 0.830755 0.556773 
0.002089 0.706798 0.708673 
0.002478 0.555598 0.833424 
0.002793 0.382918 0.926045 
0.002987 0.195468 0.983030 
0.981675 -0.000030 0.198487 
0.925906 0.000076 0.386551 
0.834407 0.000148 0.559842 
0.710502 0.000225 0.711670 
0.559109 0.000339 0.836009 
0.386137 0.000395 0.927961 
0.198326 0.000436 0.984007 
-0.192051 0.000479 0.981722 
-0.379544 0.000525 0.923572 
-0.552348 0.000459 0.830101 
-0.703849 0.000429 0.705092 
-0.828409 0.000402 0.553066 
-0.921467 0.000280 0.379940 
-0.979284 0.000210 0.192183 
-0.981679 0.000024 -0.198463 
-0.925881 -0.000074 -0.386522 
-0.834351 -0.000139 -0.559829 
-0.710464 -0.000224 -0.711654 
-0.559083 -0.000313 -0.836056 
-0.386139 -0.000386 -0.927967 
-0.198318 -0.000444 -0.984003 
0.192078 -0.000508 -0.981723 
0.379557 -0.000525 -0.923582 
0.552381 -0.000478 -0.830118 
0.703873 -0.000438 -0.705090 
0.828406 -0.000397 -0.553071 
0.921464 -0.000302 -0.379923 
0.979314 -0.000224 -0.192177 
1.184870 0.187478 0.002079 
1.140832 0.370400 0.002070 
1.068652 0.544181 0.001970 
0.970217 0.704498 0.001882 
0.847901 0.847399 0.001717 
0.704709 0.969481 0.001425 
0.544232 1.067644 0.001210 
0.370392 1.139540 0.000923 
0.187459 1.183450 0.000678 
-0.187681 1.183563 -0.000028 
-0.370610 1.139788 -0.000398 
-0.544481 1.067891 -0.000630 
-0.704937 0.969773 -0.000897 
-0.848164 0.847681 -0.001183 
-0.970499 0.704690 -0.001518 
-1.068844 0.544388 -0.001681 
-1.140991 0.370563 -0.001838 
-1.184951 0.187620 -0.001973 
-1.184883 -0.187477 -0.002089 
-1.140872 -0.370416 -0.002065 
-1.068715 -0.544202 -0.001974 
-0.970279 -0.704536 -0.001867 
-0.847903 -0.847427 -0.001665 
-0.704711 -0.969507 -0.001418 
-0.544249 -1.067641 -0.001196 
-0.370402 -1.139549 -0.000928 
-0.187462 -1.183442 -0.000680 
0.187656 -1.183551 0.000022 
0.370587 -1.139736 0.000388 
0.544447 -1.067867 0.000640 
0.704916 -0.969754 0.000917 
0.848149 -0.847694 0.001197 
0.970494 -0.704699 0.001548 
1.068844 -0.544396 0.001690 
1.140994 -0.370571 0.001839 
1.184949 -0.187637 0.001982 
-0.000269 -1.183688 -0.188101 
-0.000547 -1.140064 -0.371252 
-0.000862 -1.068423 -0.545411 
-0.001092 -0.970454 -0.706271 
-0.001394 -0.848520 -0.849753 
-0.001665 -0.705627 -0.972415 
-0.001782 -0.545179 -1.071139 
-0.001907 -0.371235 -1.143409 
-0.002014 -0.188090 -1.187391 
-0.002034 0.187406 -1.187067 
-0.001979 0.370495 -1.142730 
-0.001879 0.544297 -1.070272 
-0.001733 0.704607 -0.971443 
-0.001526 0.847510 -0.848830 
-0.001232 0.969530 -0.705271 
-0.001006 1.067603 -0.544561 
-0.000780 1.139428 -0.370552 
-0.000415 1.183371 -0.187389 
0.000283 1.183715 0.188116 
0.000542 1.140041 0.371276 
0.000798 1.068468 0.545337 
0.001086 0.970465 0.706271 
0.001394 0.848507 0.849759 
0.001694 0.705624 0.972375 
0.001797 0.545172 1.071129 
0.001922 0.371232 1.143381 
0.002022 0.188100 1.187383 
0.002054 -0.187424 1.187063 
0.001980 -0.370478 1.142766 
0.001877 -0.544317 1.070278 
0.001740 -0.704620 0.971410 
0.001517 -0.847515 0.848805 
0.001225 -0.969519 0.705252 
0.001002 -1.067589 0.544549 
0.000774 -1.139424 0.370535 
0.000407 -1.183363 0.187355 
-1.183861 0.000135 0.185743 
-1.139065 0.000149 0.368697 
-1.066418 0.000227 0.542505 
-0.967836 0.000225 0.702985 
-0.845650 0.000319 0.846412 
-0.702606 0.000320 0.969138 
-0.542384 0.000326 1.068110 
-0.368703 0.000316 1.141148 
-0.185752 0.000338 1.186177 
0.190013 0.000291 1.188284 
0.373458 0.000288 1.145105 
0.547867 0.000252 1.073556 
0.708738 0.000202 0.975247 
0.851909 0.000168 0.852660 
0.974013 0.000139 0.709092 
1.071927 0.000059 0.548035 
1.143110 0.000002 0.373529 
1.185990 -0.000038 0.189973 
1.183870 -0.000146 -0.185711 
1.139048 -0.000191 -0.368708 
1.066402 -0.000231 -0.542505 
0.967857 -0.000243 -0.702996 
0.845643 -0.000311 -0.846426 
0.702600 -0.000301 -0.969148 
0.542392 -0.000322 -1.068128 
0.368732 -0.000328 -1.141141 
0.185752 -0.000329 -1.186194 
-0.189994 -0.000286 -1.188265 
-0.373428 -0.000281 -1.145105 
-0.547868 -0.000265 -1.073584 
-0.708725 -0.000251 -0.975190 
-0.851891 -0.000166 -0.852636 
-0.973977 -0.000132 -0.709064 
-1.071879 -0.000050 -0.548008 
-1.143089 0.000002 -0.373518 
-1.185991 0.000033 -0.189966 
0.816557 -0.396134 -0.412676 
0.415695 -0.792346 -0.442523 
0.391386 -0.377321 -0.837711 
0.890955 -0.298114 -0.334387 
0.295428 -0.893054 -0.334575 
0.679302 -0.335577 -0.647751 
0.555680 -0.629436 -0.538848 
0.869209 -0.480157 -0.106203 
0.178527 -0.619233 -0.764722 
0.609860 -0.171551 -0.769806 
0.871102 -0.156322 -0.458049 
0.205345 -0.851146 -0.480891 
0.952144 -0.138401 -0.263287 
0.801249 -0.292448 -0.515411 
0.681912 -0.642773 -0.342039 
0.463455 -0.860902 -0.200949 
0.628192 -0.756067 -0.173449 
0.524312 -0.476760 -0.702365 
0.794333 -0.142334 -0.584181 
0.556107 -0.752107 -0.347518 
0.984933 -0.122834 -0.110645 
0.771079 -0.616064 -0.150080 
0.152031 -0.946966 -0.277905 
0.937234 -0.306311 -0.156479 
0.733908 -0.469095 -0.485029 
0.268398 -0.949446 -0.152146 
0.546992 -0.300526 -0.778089 
0.332083 -0.704195 -0.625591 
0.832595 -0.468014 -0.287836 
0.495391 -0.181556 -0.846856 
0.145870 -0.757265 -0.636171 
0.192654 -0.480524 -0.855880 
0.174304 -0.318179 -0.932550 
0.349111 -0.555895 -0.752896 
0.635955 -0.480643 -0.599074 
0.124308 -0.982574 -0.125541 
0.446075 -0.600950 -0.660509 
0.326489 -0.215983 -0.919365 
0.202116 -0.133158 -0.970632 
0.499266 0.581429 -0.636989 
0.502922 0.782695 -0.357847 
0.805804 0.371518 -0.452690 
0.397757 0.467398 -0.786114 
0.349447 0.884078 -0.301133 
0.288091 0.312211 -0.903814 
0.167245 0.162964 -0.972630 
0.758486 0.215513 -0.608386 
0.670099 0.536264 -0.505700 
0.501894 0.845251 -0.169013 
0.598739 0.175462 -0.777069 
0.182189 0.876033 -0.441132 
0.166305 0.473848 -0.863830 
0.554029 0.682181 -0.469570 
0.150958 0.952427 -0.255730 
0.386997 0.138688 -0.909615 
0.120821 0.321932 -0.939253 
0.624272 0.701518 -0.334079 
0.112972 0.624042 -0.771873 
0.166059 0.753632 -0.632959 
0.299149 0.623351 -0.719177 
0.855410 0.485069 -0.168481 
0.606252 0.392461 -0.686193 
0.374520 0.764804 -0.518309 
0.758913 0.552680 -0.334329 
0.125158 0.983816 -0.110454 
0.288667 0.944842 -0.138963 
0.706579 0.689006 -0.146129 
0.944964 0.146460 -0.282857 
0.470392 0.304438 -0.824791 
0.852948 0.409163 -0.313985 
0.873923 0.169936 -0.447002 
0.938121 0.292049 -0.174295 
0.893782 0.283023 -0.338345 
0.981725 0.128131 -0.128902 
0.722496 0.383326 -0.568348 
0.464103 0.460432 0.762729 
0.453998 0.804543 0.385381 
0.833473 0.411950 0.375816 
0.336024 0.314516 0.893005 
0.304673 0.904383 0.297861 
0.906991 0.337690 0.258921 
0.963991 0.168499 0.213641 
0.553646 0.632579 0.547033 
0.111326 0.481211 0.872605 
0.755907 0.166986 0.641249 
0.446127 0.160797 0.886531 
0.429396 0.883274 0.184768 
0.865498 0.472351 0.171077 
0.265094 0.142183 0.958314 
0.254203 0.955112 0.143536 
0.938887 0.321938 0.126748 
0.616819 0.160201 0.778113 
0.519131 0.292388 0.809804 
0.320681 0.629193 0.712291 
0.775461 0.620220 0.116993 
0.669257 0.722733 0.172437 
0.591420 0.495191 0.642966 
0.195248 0.753212 0.630751 
0.760801 0.577620 0.301145 
0.630624 0.684928 0.369475 
0.391812 0.719640 0.577234 
0.552613 0.802615 0.224618 
0.110546 0.984514 0.124443 
0.115522 0.124019 0.988826 
0.468242 0.595187 0.658488 
0.153380 0.613182 0.777961 
0.705395 0.507164 0.502077 
0.645703 0.350770 0.685635 
0.160860 0.309978 0.940764 
0.166195 0.947611 0.269726 
0.786852 0.320256 0.535713 
0.842920 0.140933 0.528018 
0.217688 0.864129 0.454758 
0.888665 0.233596 0.403074 
0.259506 0.477339 0.843892 
0.512868 -0.787211 0.343639 
0.332594 -0.372341 0.870590 
0.328388 -0.872604 0.360346 
0.152329 -0.464882 0.874342 
0.516783 -0.158278 0.847632 
0.427032 -0.883402 0.188873 
0.609188 -0.546664 0.579808 
0.269940 -0.174310 0.951166 
0.228203 -0.955409 0.179600 
0.913594 -0.373853 0.165682 
0.771576 -0.400956 0.500947 
0.738288 -0.659253 0.143314 
0.870935 -0.188799 0.462101 
0.956115 -0.181628 0.237817 
0.510052 -0.322223 0.803253 
0.568168 -0.676194 0.472593 
0.611310 -0.773809 0.164491 
0.708986 -0.637075 0.306446 
[...]
POINT_DATA 1108
SCALARS u float 1
LOOKUP_TABLE default
0.003148
0.003118
0.001883
0.001926
0.003795
0.003777
0.002098
0.002098
0.001791
0.001770
0.002914
0.002931
0.003190
0.003167
0.003054
0.002912
0.002646
0.002413
0.002153
0.001679
0.001664
0.001847
0.002130
0.002408
0.002739
0.002961
0.003161
0.003132
0.003010
0.002869
0.002660
0.002440
0.002140
0.001729
0.001719
0.001889
0.002125
0.002412
0.002743
0.002969
0.003628
0.003351
0.002987
0.002676
0.002484
0.002256
0.002100
0.001757
0.001794
0.002139
0.002623
0.003128
0.003557
0.003755
0.003620
0.003297
0.003007
0.002689
0.002471
0.002264
0.002105
0.001748
0.001832
0.002131
0.002629
0.003157
0.003542
0.003755
0.003512
0.004367
0.005186
0.005693
0.005766
0.005361
0.004586
0.003216
0.003198
0.003531
0.003854
0.003975
0.003664
0.003279
0.003489
0.004330
0.005144
0.005657
0.005786
0.005367
0.004579
0.003196
0.003184
0.003497
0.003836
0.003973
0.003681
0.003272
0.002124
0.002156
0.002135
0.002149
0.002148
0.002056
0.002054
0.002005
0.001918
0.001664
0.001547
0.001492
0.001437
0.001500
0.001683
0.001766
0.001876
0.001994
0.002131
0.002141
0.002118
0.002105
0.002091
0.002033
0.002044
0.001998
0.001927
0.001677
0.001597
0.001524
0.001470
0.001507
0.001708
0.001773
0.001876
0.002003
0.001607
0.001391
0.001321
0.001479
0.001856
0.002323
0.002657
0.002897
0.002980
0.002761
0.002482
0.002215
0.001983
0.001859
0.001786
0.001908
0.002016
0.001930
0.001587
0.001416
0.001219
0.001473
0.001860
0.002317
0.002659
0.002886
0.002981
0.002772
0.002506
0.002212
0.001974
0.001845
0.001789
0.001918
0.002020
0.001942
0.002407
0.003063
0.003612
0.003809
0.003587
0.003228
0.002663
0.002144
0.002212
0.003833
0.004665
0.005334
0.005583
0.005341
0.004927
0.004235
0.003275
0.002378
0.002430
0.003071
0.003625
0.003788
0.003583
0.003226
0.002649
0.002118
0.002219
0.003806
0.004648
0.005358
0.005532
0.005311
0.004882
0.004184
0.003255
0.002372
0.003209
0.002030
0.002809
0.003218
0.001780
0.003352
0.002580
0.002587
0.002486
0.003455
0.003647
0.001892
0.003304
0.003503
0.002605
0.001902
0.002179
0.002816
0.003802
0.002248
0.003058
0.002427
0.001720
0.002914
0.003141
0.001687
0.003170
0.002191
0.002891
0.003178
0.002185
0.002765
0.003032
0.002470
0.003033
0.001729
0.002470
0.002966
0.003126
0.003663
0.003312
0.003986
0.003419
0.002919
0.003198
0.003230
0.004069
0.003869
0.002932
0.003781
0.002739
0.003031
0.003655
0.002469
0.003300
0.003188
0.003486
0.002878
0.002844
0.003198
0.003369
0.003932
0.003280
0.003719
0.002211
0.002510
0.003178
0.003563
0.003584
0.003702
0.003966
0.003372
0.003758
0.003247
0.004034
0.004930
0.002776
0.004062
0.005010
0.002154
0.003685
0.003645
0.003900
0.003743
0.005438
0.005532
0.002324
0.003278
0.004931
0.002062
0.003319
0.005803
0.005498
0.003863
0.002974
0.002839
0.004699
0.002974
0.003407
0.003304
0.003403
0.002597
0.001847
0.004269
0.004235
0.003450
0.004294
0.005280
0.004323
0.001897
0.004892
0.005058
0.002316
0.004394
0.004333
0.002287
0.004397
0.002009
0.003538
0.005450
0.001814
0.003900
0.004681
0.001799
0.003009
0.004263
0.002363
0.004555
0.003565
0.004968
0.002984
0.002095
0.002835
0.004141
0.003966
0.002474
0.002098
0.002564
0.002687
0.003341
0.005268
0.002198
0.004082
0.003561
0.003288
0.004803
0.003050
0.002992
0.003644
0.005512
0.005077
0.003749
0.001850
0.003688
0.003334
0.003940
0.003464
0.002954
0.003193
0.003215
0.004048
0.003891
0.002964
0.003831
0.002740
0.003051
0.003599
0.002445
0.003313
0.003187
0.003484
0.002862
0.002841
0.003203
0.003305
0.003951
0.003287
0.003695
0.002210
0.002525
0.003151
0.003533
0.003583
0.003709
0.003949
0.003327
0.003732
0.003237
0.004060
0.004839
0.002745
0.003990
0.005015
0.002174
0.003658
0.003625
0.003911
0.003727
0.005432
0.005526
0.002336
0.003248
0.004912
0.002051
0.003290
0.005742
0.005486
0.003808
0.002929
0.002850
0.004678
0.002898
0.003390
0.003299
0.003389
0.002610
0.001867
0.004272
0.004142
0.003443
0.004267
0.005233
0.004336
0.001931
0.004847
0.005005
0.002330
0.004388
0.004331
0.002269
0.004387
0.002002
0.003544
0.005482
0.001792
0.003888
0.004680
0.001775
0.003005
0.004235
0.002357
0.004531
0.003543
0.004945
0.002992
0.002059
0.002818
0.004114
0.003942
0.002460
0.002103
0.002568
0.002690
0.003333
0.005252
0.002201
0.004073
0.003534
0.003247
0.004781
0.003020
0.002985
0.003622
0.005500
0.005088
0.003714
0.001827
0.003210
0.002029
0.002829
0.003233
0.001789
0.003353
0.002577
0.002592
0.002490
0.003471
0.003653
0.001834
0.003283
0.003502
0.002597
0.001874
0.002120
0.002821
0.003806
0.002233
0.003045
0.002417
0.001721
0.002920
0.003139
0.001661
0.003187
0.002220
0.002886
0.003201
0.002198
0.002781
0.003045
0.002493
0.003030
0.001707
0.002493
0.002979
0.003134
0.002334
0.003551
0.003745
0.002665
0.001381
0.002632
0.001473
0.003974
0.002118
0.001652
0.003588
0.004837
0.001957
0.002613
0.004450
0.001586
0.005294
0.002478
0.001588
0.002391
0.001834
0.001321
0.003457
0.001715
0.003123
0.003021
0.002083
0.001466
0.002604
0.001756
0.003956
0.004269
0.002880
0.002800
0.003671
0.001564
0.003293
0.005111
0.001701
0.004865
0.003172
0.005389
0.001972
0.004181
0.001611
0.003472
0.001434
0.001765
0.001363
0.002307
0.001336
0.003228
0.002237
0.001778
0.002146
0.002111
0.004088
0.004608
0.001502
0.004865
0.002988
0.004359
0.003450
0.003487
0.002563
0.002660
0.003190
0.002460
0.002949
0.002193
0.002174
0.002379
0.002194
0.003877
0.002587
0.002386
0.002337
0.003880
0.003123
0.002061
0.003318
0.003105
0.002556
0.002642
0.002325
0.003392
0.002126
0.003614
0.002415
0.002576
0.002176
0.002714
0.003099
0.002954
0.003613
0.003793
0.003372
0.003652
0.003059
0.002097
0.003817
0.002504
0.003466
0.002092
0.003626
0.002805
0.003916
0.002752
0.003617
0.002961
0.002580
0.002822
0.003108
0.003375
0.003767
0.002261
0.001955
0.003135
0.003935
0.002836
0.002491
0.002468
0.002197
0.002096
0.004690
0.003030
0.001607
0.004685
0.003320
0.004302
0.002821
0.001487
0.004190
0.002690
0.001630
0.002155
0.002950
0.002182
0.002142
0.003234
0.001769
0.001614
0.004473
0.005253
0.005514
0.004645
0.002256
0.003568
0.001442
0.003920
0.004957
0.003605
0.002256
0.003628
0.002153
0.002863
0.002542
0.003268
0.003596
0.003542
0.004671
0.001946
0.002529
0.001886
0.001915
0.002048
0.001864
0.003813
0.002634
0.004178
0.002788
0.005141
0.005504
0.005152
0.004063
0.003836
0.004438
0.002210
0.003509
0.003821
0.003028
0.001638
0.005240
0.001727
0.001353
0.001741
0.002956
0.002234
0.001677
0.002027
0.002902
0.001991
0.002602
0.002122
0.002558
0.001638
0.002202
0.001582
0.001985
0.001889
0.002099
0.001325
0.001733
0.003328
0.002683
0.002825
0.003568
0.002181
0.002116
0.001668
0.002582
0.002166
0.003160
0.002396
0.002163
0.001890
0.001443
0.001589
0.001899
0.002234
0.002591
0.002201
0.002970
0.002132
0.001753
0.001780
0.001571
0.001866
0.001453
0.001762
0.001774
0.002503
0.001857
0.002610
0.003243
0.003580
0.002386
0.003266
0.002415
0.002933
0.002157
0.002480
0.002596
0.001980
0.001590
0.003322
0.001569
0.001613
0.002662
0.004161
0.004590
0.002911
0.001480
0.002812
0.001524
0.002236
0.001757
0.002593
0.005127
0.005366
0.003310
0.001726
0.004550
0.003158
0.005499
0.001960
0.002579
0.002141
0.001755
0.001395
0.003557
0.005105
0.003506
0.002282
0.001665
0.001553
0.002678
0.004533
0.003822
0.004427
0.004900
0.003628
0.003434
0.004213
0.001992
0.003549
0.001967
0.005200
0.005135
0.003894
0.005515
0.002516
0.004423
0.002126
0.003686
0.001519
0.001951
0.001931
0.002606
0.001637
0.002789
0.003557
0.001740
0.002204
0.004433
0.002761
0.004474
0.001851
0.003876
0.003469
0.002950
0.002222
0.001667
0.002008
0.002897
0.001983
0.002603
0.001630
0.002116
0.002570
0.001647
0.001613
0.002204
0.001528
0.001889
0.002115
0.001315
0.001747
0.003327
0.002664
0.002803
0.003563
0.002177
0.002116
0.001450
0.002579
0.002147
0.003169
0.002395
0.002165
0.001950
0.001844
0.002279
0.002601
0.002173
0.002969
0.002106
0.001760
0.001822
0.001539
0.002076
0.001438
0.001790
0.001751
0.002504
0.001841
0.002619
0.003231
0.003567
0.002360
0.003262
0.002399
0.002935
0.002166
0.002479
0.001944
0.002609
0.001826
0.003309
0.001449
0.001645
0.001621
0.002329
0.003550
0.004046
0.002681
0.001389
0.002646
0.001491
0.002126
0.001676
0.004864
0.001959
0.005035
0.002607
0.004476
0.001585
0.005249
0.002474
0.001602
0.002409
0.001842
0.001337
0.003488
0.001718
0.004801
0.003017
0.002086
0.001484
0.002616
0.001771
0.003906
0.003186
0.004298
0.004411
0.002909
0.002800
0.003707
0.001560
0.003324
0.005136
0.001695
0.004667
0.003174
0.005396
0.001961
0.004210
0.001608
0.003505
0.001429
0.001783
0.001384
0.002315
0.001347
0.003252
0.002227
0.001794
0.002157
0.004144
0.002117
0.004097
0.001513
0.003561
0.003324
0.003117
0.003677
0.003533
0.002668
0.002291
0.002458
0.002142
0.003051
0.002164
0.002268
0.002513
0.003070
0.003808
0.003891
0.002597
0.003183
0.002485
0.003839
0.002641
0.002860
0.002304
0.002091
0.002416
0.002362
0.003520
0.003596
0.002335
0.002099
0.002187
0.002119
0.003709
0.003552
0.003926
0.003766
0.003524
0.002937
0.003075
0.002467
0.003569
0.003135
0.003838
0.002493
0.003888
0.003036
0.003348
0.002838
0.002682
0.002540
0.002121
0.002660
0.002267
0.003372
0.003427
0.002400
0.001964
0.003608
0.003302
0.003119
0.002086
0.002542
0.003115
0.002361
0.002747
0.002815
0.004388
0.003094
0.003379
0.003864
0.003779
0.001401
0.000727
0.002805
0.002621
0.003181
0.002819
0.004627
0.002685
0.002892
0.003107
0.004707
0.003583
0.000649
0.001814
0.002248
0.002161
0.002719
0.004366
0.003711
0.004157
0.003611
0.003865
0.003155
0.004679
0.004506
0.004066
0.003881
0.002520
0.004774
0.004685
0.001815
0.003702
0.001649
0.003586
0.005375
0.002968
0.003815
0.003131
0.005136
0.002174
0.002195
0.004639
0.002364
0.002776
0.004295
0.005174
0.003585
0.003483
0.003174
0.003443
0.002514
0.003507
0.004108
0.003509
0.003541
0.003060
0.003296
0.003387
0.003541
0.004465
0.005288
0.002728
0.003717
0.004398
0.004474
0.004483
0.004993
0.003028
0.003638
0.004117
0.004962
0.004453
0.004247
0.003906
0.004536
0.004281
0.005259
0.004693
0.003796
0.001985
0.002185
0.001723
0.002823
0.002021
0.001965
0.003421
0.003858
0.003260
0.003366
0.003599
0.003702
0.001770
0.001357
0.003511
0.001058
