# vtk DataFile Version 2.0
Unstructured Grid Example
ASCII
DATASET UNSTRUCTURED_GRID
POINTS 1108 float
0.981573 -0.023882 0.003919 
-0.981862 0.023545 -0.003685 
-0.023784 1.024698 -0.006508 
0.023773 -1.024863 0.006572 
0.003895 -0.006336 0.992740 
-0.003978 0.006587 -0.993614 
1.182702 -0.015778 0.002600 
-1.182718 0.015940 -0.002441 
-0.015754 1.223345 -0.004060 
0.016085 -1.223559 0.004286 
0.002517 -0.004222 1.193191 
-0.002478 0.004089 -1.193649 
0.954384 0.172945 0.002420 
0.891935 0.362139 0.001173 
0.797285 0.537907 -0.000060 
0.673917 0.693945 -0.001726 
0.525187 0.825958 -0.003226 
0.355282 0.928119 -0.004472 
0.170250 0.995282 -0.005510 
-0.218505 1.013128 -0.007048 
-0.406042 0.961793 -0.007462 
-0.576853 0.871268 -0.007440 
-0.724406 0.744797 -0.007150 
-0.842563 0.589479 -0.006714 
-0.925763 0.412357 -0.005955 
-0.972486 0.221123 -0.004936 
-0.954779 -0.173140 -0.002286 
-0.892192 -0.362268 -0.001281 
-0.797947 -0.538125 0.000204 
-0.674521 -0.693883 0.001826 
-0.525350 -0.825621 0.003187 
-0.355179 -0.927663 0.004410 
-0.170036 -0.995357 0.005656 
0.218713 -1.013267 0.007219 
0.406198 -0.961649 0.007572 
0.577015 -0.871331 0.007617 
0.724760 -0.744813 0.007277 
0.842578 -0.589511 0.006790 
0.926026 -0.412626 0.006128 
0.972589 -0.221438 0.005164 
0.008636 -0.204427 0.976291 
0.012794 -0.395452 0.923144 
0.016627 -0.572566 0.834600 
0.019637 -0.728048 0.713198 
0.021980 -0.856113 0.563207 
0.023394 -0.950509 0.390863 
0.024365 -1.006961 0.202379 
0.022532 -1.002096 -0.189062 
0.020468 -0.940492 -0.376577 
0.017441 -0.842815 -0.548919 
0.013793 -0.713992 -0.699444 
0.009908 -0.558374 -0.822706 
0.005327 -0.381906 -0.914789 
0.000530 -0.191066 -0.972421 
-0.008344 0.204109 -0.976856 
-0.012643 0.395344 -0.923896 
-0.016518 0.572375 -0.834542 
-0.019417 0.727808 -0.712968 
-0.021722 0.855906 -0.563076 
-0.023180 0.950307 -0.390728 
-0.024140 1.006950 -0.202299 
-0.022380 1.002130 0.189339 
-0.020349 0.940616 0.376995 
-0.017589 0.843389 0.548924 
-0.013883 0.714266 0.699520 
-0.010235 0.558494 0.822797 
-0.005581 0.382184 0.914429 
-0.000658 0.191466 0.971957 
0.964536 -0.024475 0.197310 
0.910451 -0.024416 0.383133 
0.820845 -0.023042 0.554492 
0.699671 -0.021223 0.705004 
0.551100 -0.018665 0.828317 
0.380917 -0.014771 0.919479 
0.196062 -0.010388 0.975017 
-0.188530 -0.001295 0.971963 
-0.372561 0.002963 0.913709 
-0.542828 0.008177 0.820877 
-0.692078 0.012024 0.696772 
-0.814247 0.015994 0.546143 
-0.905145 0.019191 0.374998 
-0.961719 0.021711 0.189505 
-0.964598 0.024248 -0.197062 
-0.910366 0.024371 -0.382883 
-0.820685 0.022840 -0.554253 
-0.699497 0.021114 -0.704892 
-0.550698 0.018293 -0.828567 
-0.381046 0.014297 -0.919998 
-0.196411 0.010400 -0.975886 
0.188181 0.001848 -0.972327 
0.372932 -0.003012 -0.914100 
0.542883 -0.007982 -0.821118 
0.691791 -0.012115 -0.696705 
0.813838 -0.016067 -0.546040 
0.905029 -0.019555 -0.374843 
0.961718 -0.022176 -0.189132 
1.160219 0.171628 0.001905 
1.111048 0.353549 0.001052 
1.036725 0.526334 0.000224 
0.939426 0.687272 -0.000569 
0.820052 0.833069 -0.000981 
0.680512 0.960344 -0.001999 
0.523884 1.065843 -0.002605 
0.353305 1.146739 -0.003165 
0.171971 1.199994 -0.003818 
-0.204784 1.216125 -0.004434 
-0.389758 1.177430 -0.004997 
-0.566259 1.107747 -0.004969 
-0.727122 1.007438 -0.005268 
-0.867925 0.881097 -0.004737 
-0.986245 0.733800 -0.004403 
-1.078337 0.568434 -0.004209 
-1.141828 0.390213 -0.003754 
-1.176445 0.204489 -0.003283 
-1.160671 -0.171873 -0.001849 
-1.111384 -0.354043 -0.000801 
-1.037087 -0.526475 -0.000118 
-0.939886 -0.687816 0.000602 
-0.819795 -0.833584 0.001053 
-0.680261 -0.960418 0.002145 
-0.523733 -1.065555 0.002644 
-0.353251 -1.146490 0.003285 
-0.171959 -1.200100 0.003684 
0.204827 -1.216086 0.004519 
0.389989 -1.177389 0.004978 
0.566344 -1.107780 0.005095 
0.727234 -1.007493 0.005313 
0.868109 -0.881299 0.004831 
0.986495 -0.733992 0.004473 
1.078516 -0.568663 0.004285 
1.142073 -0.390355 0.003823 
1.176544 -0.204468 0.003359 
0.015276 -1.205897 -0.184902 
0.014247 -1.157985 -0.368403 
0.012918 -1.081580 -0.541970 
0.011586 -0.978959 -0.701578 
0.009270 -0.853058 -0.843048 
0.006798 -0.707042 -0.963899 
0.004699 -0.544177 -1.061073 
0.002362 -0.368900 -1.132506 
0.000241 -0.185162 -1.176929 
-0.005312 0.193847 -1.181538 
-0.007372 0.378159 -1.140667 
-0.009417 0.555367 -1.071976 
-0.011238 0.719118 -0.976728 
-0.012670 0.866133 -0.856115 
-0.014619 0.991930 -0.714400 
-0.015104 1.093555 -0.553737 
-0.015651 1.166766 -0.378211 
-0.016009 1.210584 -0.193658 
-0.015292 1.205840 0.184786 
-0.014273 1.158097 0.368567 
-0.012865 1.082443 0.541635 
-0.011853 0.979572 0.701640 
-0.009441 0.853348 0.843272 
-0.006391 0.707085 0.963790 
-0.004752 0.544191 1.061072 
-0.002475 0.368845 1.132234 
-0.000255 0.184945 1.176498 
0.005098 -0.193048 1.180807 
0.007363 -0.378387 1.140216 
0.009611 -0.555144 1.071937 
0.011324 -0.719160 0.976707 
0.012648 -0.866273 0.856314 
0.014736 -0.992095 0.714518 
0.015213 -1.093783 0.553849 
0.015769 -1.166892 0.378223 
0.016094 -1.210620 0.193718 
-1.167011 0.014852 0.182983 
-1.122927 0.013866 0.364238 
-1.051820 0.012070 0.536511 
-0.954805 0.010653 0.696149 
-0.834688 0.007982 0.838392 
-0.694063 0.005653 0.959643 
-0.534987 0.003467 1.058223 
-0.364225 0.000925 1.131840 
-0.183276 -0.001497 1.177103 
0.188452 -0.006690 1.179670 
0.370067 -0.009170 1.136528 
0.542376 -0.011032 1.065260 
0.701328 -0.012234 0.967342 
0.842457 -0.014191 0.845570 
0.962432 -0.015624 0.702865 
1.057914 -0.015845 0.543254 
1.127745 -0.016285 0.369987 
1.169726 -0.016287 0.188505 
1.166783 -0.014828 -0.182929 
1.122637 -0.013811 -0.364062 
1.051293 -0.012037 -0.536389 
0.954466 -0.010463 -0.695998 
0.834624 -0.008001 -0.838143 
0.694254 -0.005888 -0.959655 
0.535129 -0.003294 -1.058688 
0.363831 -0.000772 -1.132239 
0.183657 0.000948 -1.177413 
-0.188412 0.006465 -1.180353 
-0.370129 0.009634 -1.137411 
-0.542591 0.010961 -1.065500 
-0.701770 0.012803 -0.967240 
-0.842444 0.014069 -0.845417 
-0.962321 0.015435 -0.702738 
-1.057768 0.015657 -0.543130 
-1.127642 0.016127 -0.369903 
-1.169775 0.016187 -0.188448 
0.818567 -0.421027 -0.408496 
0.432846 -0.820090 -0.438121 
0.394388 -0.387031 -0.829149 
0.888172 -0.322511 -0.330258 
0.315898 -0.922490 -0.329638 
0.679278 -0.353223 -0.641501 
0.567211 -0.653815 -0.534127 
0.876686 -0.511841 -0.102346 
0.190517 -0.629566 -0.756599 
0.605206 -0.183426 -0.761341 
0.862209 -0.176249 -0.452603 
0.223972 -0.873229 -0.475253 
0.941284 -0.161387 -0.259376 
0.798864 -0.313379 -0.510171 
0.695470 -0.674031 -0.338200 
0.484838 -0.897728 -0.196272 
0.647123 -0.793491 -0.168943 
0.529836 -0.493388 -0.695741 
0.786313 -0.159211 -0.577329 
0.573397 -0.784399 -0.343481 
0.972899 -0.147085 -0.108043 
0.784256 -0.650662 -0.146007 
0.174142 -0.973792 -0.272215 
0.935159 -0.333647 -0.153027 
0.739194 -0.493772 -0.480602 
0.291236 -0.983288 -0.146296 
0.546504 -0.312925 -0.770177 
0.345682 -0.723540 -0.619856 
0.838827 -0.496656 -0.283772 
0.491895 -0.190096 -0.837485 
0.161576 -0.771630 -0.629245 
0.200479 -0.486816 -0.846554 
0.178110 -0.320487 -0.922261 
0.357756 -0.569869 -0.745650 
0.641790 -0.501335 -0.593995 
0.147547 -1.012323 -0.119241 
0.455870 -0.619692 -0.654690 
0.325824 -0.220060 -0.909401 
0.200998 -0.133282 -0.960587 
0.476667 0.581598 -0.634152 
0.476122 0.784200 -0.359417 
0.778986 0.358730 -0.447357 
0.379979 0.470445 -0.782328 
0.324274 0.894141 -0.305439 
0.275973 0.316538 -0.898206 
0.160507 0.168428 -0.965209 
0.738221 0.203910 -0.600944 
0.643548 0.529143 -0.501746 
0.473600 0.845651 -0.172778 
0.583529 0.168705 -0.768680 
0.160204 0.895020 -0.446627 
0.152282 0.484881 -0.862246 
0.527661 0.680802 -0.468341 
0.127476 0.973517 -0.262313 
0.377110 0.137671 -0.901029 
0.111033 0.331543 -0.935002 
0.595225 0.695949 -0.333982 
0.096692 0.640046 -0.774167 
0.146485 0.770656 -0.636830 
0.280454 0.632610 -0.718977 
0.822925 0.468611 -0.167876 
0.585018 0.387370 -0.679897 
0.351254 0.772688 -0.520113 
0.728798 0.540998 -0.331955 
0.101333 1.005267 -0.117230 
0.263378 0.957524 -0.144713 
0.674472 0.678694 -0.148056 
0.922038 0.127258 -0.278918 
0.454766 0.303032 -0.817830 
0.823503 0.393882 -0.310534 
0.851680 0.153945 -0.440797 
0.909353 0.272788 -0.172423 
0.867035 0.266280 -0.333909 
0.958255 0.106836 -0.126942 
0.698010 0.373872 -0.562117 
0.444612 0.448851 0.749076 
0.426893 0.799879 0.375416 
0.803923 0.392103 0.366692 
0.323535 0.304204 0.879670 
0.279305 0.909393 0.289599 
0.877714 0.316849 0.252664 
0.939773 0.145449 0.210087 
0.527245 0.621140 0.534779 
0.098709 0.479391 0.860099 
0.737261 0.146763 0.631672 
0.435403 0.146455 0.875063 
0.401829 0.883772 0.176971 
0.832910 0.452990 0.165328 
0.258219 0.131888 0.947108 
0.229098 0.965997 0.136588 
0.909114 0.300627 0.123010 
0.602222 0.142241 0.767466 
0.503182 0.277966 0.796896 
0.300727 0.624405 0.699723 
0.742146 0.604749 0.111295 
0.637348 0.711050 0.165190 
0.567257 0.480698 0.629888 
0.175374 0.755378 0.620443 
0.729261 0.560825 0.292486 
0.600504 0.672369 0.359282 
0.368093 0.714425 0.565430 
0.522957 0.795930 0.216281 
0.086882 1.003659 0.117738 
0.111788 0.116547 0.977963 
0.445405 0.585080 0.645480 
0.137093 0.612853 0.766333 
0.677543 0.490182 0.490586 
0.624307 0.333735 0.673227 
0.151595 0.304308 0.928213 
0.142432 0.960678 0.262455 
0.761807 0.300631 0.524974 
0.823395 0.118902 0.520352 
0.194900 0.870157 0.445688 
0.864196 0.212068 0.395857 
0.244464 0.471655 0.830661 
0.534127 -0.828477 0.353113 
0.339323 -0.394241 0.871368 
0.350768 -0.911912 0.370328 
0.162781 -0.484702 0.876020 
0.514812 -0.178658 0.843590 
0.450437 -0.925034 0.197567 
0.621643 -0.580324 0.586450 
0.271421 -0.190089 0.946145 
0.251860 -0.993008 0.188333 
0.916574 -0.405097 0.168890 
0.777253 -0.432341 0.504420 
0.754453 -0.697726 0.149404 
0.865667 -0.215871 0.461307 
0.948674 -0.209136 0.238397 
0.514284 -0.346444 0.803745 
0.585500 -0.714095 0.481408 
0.631890 -0.815581 0.172097 
0.725015 -0.675398 0.313388 
[...]
POINT_DATA 1108
SCALARS u float 1
LOOKUP_TABLE default
0.030418
0.029949
0.034900
0.035022
0.010393
0.010000
0.023557
0.023637
0.028455
0.028847
0.008398
0.007950
0.034544
0.037998
0.038479
0.035746
0.031047
0.028086
0.029284
0.040546
0.045152
0.045740
0.042083
0.036304
0.030324
0.027766
0.034108
0.037716
0.037791
0.035214
0.030946
0.028111
0.029531
0.040807
0.045131
0.045900
0.042265
0.036352
0.030639
0.028072
0.013489
0.018090
0.023981
0.029347
0.033893
0.036377
0.036496
0.031594
0.027059
0.021844
0.017215
0.013521
0.010565
0.009297
0.012900
0.017893
0.023763
0.028982
0.033545
0.036061
0.036322
0.031457
0.026954
0.022263
0.017365
0.013730
0.010987
0.009566
0.029461
0.027869
0.025397
0.022586
0.019450
0.015513
0.011922
0.011070
0.014652
0.018477
0.021846
0.025324
0.027899
0.029430
0.029221
0.027867
0.025292
0.022552
0.019152
0.014905
0.011572
0.011077
0.014135
0.018216
0.022126
0.025688
0.028270
0.029847
0.029798
0.034823
0.037360
0.036228
0.032417
0.027024
0.021333
0.018621
0.021926
0.035575
0.041125
0.044395
0.042930
0.038202
0.032668
0.025694
0.019760
0.019211
0.029284
0.034281
0.036975
0.035559
0.032404
0.027238
0.021533
0.018621
0.021983
0.035572
0.041194
0.044480
0.043039
0.038479
0.032963
0.025980
0.019921
0.019160
0.025857
0.022097
0.018108
0.014651
0.011682
0.009850
0.009414
0.009276
0.008686
0.008908
0.010419
0.014430
0.018734
0.022979
0.027228
0.030017
0.030818
0.030571
0.025834
0.022182
0.018725
0.015191
0.011832
0.009659
0.009441
0.009572
0.009163
0.008596
0.010610
0.014390
0.018810
0.023140
0.027458
0.030290
0.030985
0.030657
0.023975
0.023916
0.022727
0.021319
0.018921
0.016856
0.015125
0.011543
0.009380
0.008727
0.010350
0.011963
0.013337
0.015716
0.017906
0.019518
0.021184
0.022498
0.024145
0.024156
0.023160
0.021546
0.019110
0.016802
0.014657
0.011444
0.008858
0.008125
0.010400
0.011778
0.013766
0.015640
0.017812
0.019462
0.021132
0.022390
0.025099
0.031193
0.012994
0.025371
0.034461
0.019236
0.025901
0.032311
0.015680
0.017362
0.024321
0.027603
0.027045
0.022441
0.032895
0.041245
0.040828
0.018011
0.022157
0.035193
0.028042
0.036271
0.033541
0.027847
0.024883
0.039679
0.015582
0.022626
0.028953
0.014921
0.020376
0.011643
0.009516
0.016578
0.021282
0.036754
0.020566
0.011270
0.009990
0.025797
0.028700
0.033674
0.021317
0.027942
0.016543
0.012673
0.028330
0.031133
0.029588
0.022389
0.029532
0.019535
0.029096
0.031599
0.016011
0.015794
0.031981
0.023943
0.026851
0.022660
0.038404
0.026510
0.026116
0.035291
0.031793
0.028623
0.035410
0.032542
0.020657
0.036223
0.031414
0.036599
0.034779
0.033216
0.030736
0.022188
0.027557
0.034616
0.016513
0.025886
0.035255
0.032827
0.028348
0.014117
0.025786
0.017219
0.027966
0.037827
0.012899
0.027284
0.036564
0.021627
0.020642
0.020520
0.037154
0.034358
0.027378
0.019767
0.035380
0.032416
0.024197
0.030785
0.029945
0.010648
0.024608
0.016642
0.031698
0.026076
0.012509
0.026695
0.030362
0.027726
0.023333
0.031236
0.016629
0.047443
0.023974
0.045980
0.023600
0.020192
0.047839
0.037786
0.016177
0.044232
0.031744
0.032991
0.042042
0.027294
0.028399
0.025498
0.043368
0.046809
0.042523
0.012426
0.017244
0.038416
0.041320
0.043713
0.036627
0.040130
0.025449
0.043361
0.033213
0.039022
0.035906
0.030192
0.038607
0.031099
0.030356
0.022777
0.019711
0.030966
0.039598
0.025953
0.028701
0.032809
0.021330
0.027992
0.016979
0.012981
0.028142
0.030994
0.029579
0.022555
0.029766
0.019557
0.028727
0.031690
0.016347
0.015775
0.031627
0.024108
0.027096
0.022971
0.037862
0.026506
0.026390
0.035392
0.031995
0.028667
0.034793
0.032043
0.020801
0.035794
0.030787
0.035974
0.034014
0.032854
0.030410
0.021991
0.027604
0.034570
0.015949
0.025538
0.035275
0.032646
0.028118
0.013735
0.025907
0.016688
0.027879
0.037127
0.012598
0.027436
0.036315
0.021753
0.020593
0.020582
0.036660
0.033719
0.027046
0.019881
0.035508
0.032221
0.024127
0.030697
0.030034
0.010190
0.024579
0.016477
0.031297
0.025966
0.012147
0.026508
0.030280
0.027828
0.023235
0.031609
0.016735
0.047061
0.023626
0.045519
0.022960
0.020032
0.047541
0.037387
0.015593
0.043970
0.031458
0.032716
0.041802
0.027095
0.028165
0.025217
0.042954
0.046591
0.042097
0.011859
0.016831
0.037963
0.040880
0.043340
0.036388
0.039625
0.025220
0.042879
0.032637
0.038675
0.035601
0.029886
0.038198
0.030800
0.029950
0.022714
0.019368
0.030685
0.039410
0.025001
0.031617
0.013215
0.025172
0.034951
0.019194
0.026060
0.032122
0.015928
0.017395
0.024004
0.028176
0.026752
0.022289
0.032780
0.041208
0.040194
0.018174
0.021981
0.034797
0.027657
0.036257
0.033464
0.027515
0.024827
0.039597
0.015681
0.023013
0.028893
0.015130
0.020690
0.011946
0.009695
0.016939
0.021347
0.036447
0.020915
0.011445
0.010148
0.039316
0.030769
0.019211
0.022505
0.044000
0.019269
0.041399
0.013879
0.018670
0.039350
0.009124
0.019549
0.033251
0.026734
0.017373
0.035311
0.013310
0.020552
0.044679
0.033986
0.031603
0.046327
0.018044
0.036849
0.017076
0.036276
0.022779
0.044225
0.019106
0.036519
0.024353
0.025187
0.031193
0.036170
0.029865
0.043737
0.026897
0.015965
0.029439
0.018727
0.023569
0.015004
0.025608
0.021365
0.039289
0.020610
0.041442
0.039363
0.042348
0.027860
0.045927
0.032608
0.041021
0.034141
0.019935
0.038217
0.026407
0.016358
0.037485
0.011757
0.011529
0.010394
0.028225
0.021079
0.013846
0.018589
0.034413
0.020239
0.032962
0.012172
0.020939
0.032092
0.009730
0.025535
0.016737
0.014410
0.021551
0.027146
0.017902
0.013558
0.033623
0.023744
0.023827
0.036021
0.024193
0.028918
0.011525
0.024741
0.018933
0.035921
0.025351
0.028415
0.018028
0.016355
0.022786
0.025622
0.019719
0.032505
0.018360
0.021122
0.023298
0.013193
0.021263
0.017560
0.020973
0.017328
0.029995
0.018839
0.032151
0.029480
0.034159
0.020306
0.036224
0.021381
0.029428
0.027748
0.025314
0.017591
0.028074
0.016272
0.029958
0.014406
0.010115
0.011729
0.025208
0.025014
0.018151
0.014447
0.030448
0.012539
0.030890
0.017195
0.010112
0.025932
0.020318
0.032671
0.015298
0.015369
0.036485
0.012426
0.024322
0.014803
0.027255
0.020632
0.015530
0.022868
0.035044
0.011658
0.016090
0.026485
0.012640
0.025451
0.030927
0.010162
0.022468
0.019679
0.028219
0.028945
0.023141
0.031630
0.018590
0.034363
0.011629
0.017196
0.027570
0.013608
0.030356
0.016199
0.034313
0.015352
0.033742
0.022320
0.017646
0.016227
0.027817
0.029576
0.022757
0.026961
0.008669
0.019648
0.032243
0.021271
0.018934
0.019384
0.019175
0.018180
0.013238
0.022535
0.032170
0.009408
0.016769
0.008906
0.017371
0.010135
0.020060
0.013444
0.031248
0.019472
0.035944
0.009249
0.026908
0.020225
0.040373
0.014256
0.011151
0.013305
0.017143
0.008619
0.019648
0.039294
0.017313
0.011251
0.018751
0.009005
0.018214
0.027905
0.027068
0.037418
0.019931
0.029281
0.022633
0.016934
0.017649
0.009112
0.010450
0.033735
0.024901
0.034875
0.014789
0.038426
0.010111
0.024336
0.007930
0.019455
0.013220
0.016667
0.010587
0.015770
0.012475
0.017680
0.020582
0.009078
0.023584
0.012962
0.034463
0.015924
0.031535
0.030938
0.029916
0.023225
0.015145
0.032815
0.018312
0.030828
0.017216
0.030714
0.018863
0.015831
0.022989
0.019320
0.015020
0.014545
0.023298
0.011640
0.015432
0.026240
0.033618
0.035948
0.024912
0.017122
0.025513
0.013343
0.026985
0.034798
0.018854
0.020255
0.026005
0.019255
0.011696
0.009952
0.022571
0.019054
0.023028
0.026047
0.021296
0.031734
0.012833
0.019046
0.018014
0.014900
0.017312
0.011862
0.027113
0.017171
0.029609
0.017104
0.030944
0.033835
0.034953
0.021713
0.025110
0.029361
0.022794
0.026713
0.027554
0.020689
0.011845
0.030427
0.009722
0.008031
0.013301
0.022383
0.029481
0.009431
0.016883
0.008908
0.017501
0.033315
0.009982
0.020175
0.032635
0.013210
0.031392
0.019120
0.009202
0.027117
0.019399
0.040757
0.014367
0.011186
0.013220
0.017271
0.008593
0.019905
0.025834
0.017209
0.011039
0.018896
0.008826
0.018288
0.027981
0.019505
0.028140
0.022285
0.016622
0.017699
0.009021
0.010481
0.034415
0.023908
0.034746
0.014617
0.038333
0.009909
0.024343
0.007924
0.019602
0.013317
0.016827
0.010520
0.015873
0.012334
0.017629
0.020586
0.008626
0.012613
0.023325
0.035821
0.016031
0.026068
0.039796
0.037835
0.039710
0.031165
0.017616
0.022766
0.044366
0.019490
0.041676
0.018776
0.039493
0.019523
0.033591
0.017482
0.027051
0.017553
0.035699
0.013542
0.020121
0.045002
0.034373
0.031875
0.046570
0.018155
0.037189
0.012518
0.036657
0.023053
0.044451
0.019148
0.036686
0.024634
0.014933
0.009899
0.024194
0.031459
0.036588
0.029895
0.044103
0.027212
0.016145
0.029741
0.017894
0.023124
0.015056
0.025908
0.021542
0.039671
0.020862
0.041858
0.039777
0.042573
0.028166
0.046248
0.032911
0.041374
0.034289
0.019970
0.026324
0.038540
0.011654
0.037794
0.009409
0.008392
0.016914
0.028030
0.032246
0.018988
0.012789
0.020247
0.012173
0.032880
0.025612
0.009555
0.029780
0.029905
0.023266
0.027270
0.023843
0.018451
0.035593
0.026283
0.014649
0.017202
0.022161
0.013365
0.018886
0.014190
0.029474
0.022273
0.023957
0.010976
0.021034
0.010899
0.032014
0.030246
0.027760
0.025117
0.025629
0.016806
0.018887
0.029987
0.020441
0.033507
0.030027
0.033851
0.023481
0.023312
0.020046
0.019324
0.015971
0.017142
0.017200
0.019174
0.012877
0.020863
0.019805
0.009136
0.025485
0.022585
0.024595
0.035337
0.021324
0.036103
0.027514
0.033714
0.010331
0.023149
0.032024
0.019158
0.024017
0.009551
0.012343
0.032761
0.013581
0.008737
0.024707
0.032280
0.025018
0.025374
0.030256
0.031613
0.023362
0.028527
0.018814
0.016049
0.043313
0.036061
0.034876
0.032193
0.032069
0.034376
0.031794
0.032903
0.033247
0.028299
0.012184
0.018131
0.025713
0.041358
0.048366
0.028614
0.034154
0.041704
0.033857
0.032006
0.026505
0.020549
0.019736
0.038703
0.028703
0.020754
0.031406
0.031777
0.012821
0.033322
0.032671
0.024088
0.030016
0.009536
0.013386
0.023972
0.018580
0.040122
0.034594
0.030113
0.034354
0.014427
0.013769
0.010748
0.024390
0.037832
0.011372
0.017508
0.031039
0.034871
0.033740
0.031378
0.011759
0.019968
0.028228
0.015278
0.012647
0.028172
0.029384
0.017487
0.022755
0.028416
0.032432
0.030034
0.035595
0.037172
0.046176
0.040072
0.042406
0.025779
0.036354
0.044325
0.030881
0.020076
0.024653
0.016979
0.011337
0.012992
0.037257
0.018098
0.031130
0.012284
