# vtk DataFile Version 2.0
Unstructured Grid Example
ASCII
DATASET UNSTRUCTURED_GRID
POINTS 1108 float
0.994019 -0.007752 0.001272 
-0.994113 0.007642 -0.001196 
-0.007720 1.008017 -0.002112 
0.007716 -1.008070 0.002133 
0.001264 -0.002056 0.997644 
-0.001291 0.002138 -0.997927 
1.194385 -0.005121 0.000844 
-1.194391 0.005174 -0.000792 
-0.005114 1.207577 -0.001318 
0.005221 -1.207647 0.001391 
0.000817 -0.001370 1.197790 
-0.000804 0.001327 -1.197939 
0.972216 0.187902 0.000786 
0.913511 0.376015 0.000381 
0.820374 0.549837 -0.000019 
0.696334 0.702835 -0.000560 
0.545708 0.829681 -0.001047 
0.373789 0.925256 -0.001452 
0.187027 0.985491 -0.001788 
-0.202690 0.991283 -0.002288 
-0.390265 0.936186 -0.002422 
-0.562478 0.844387 -0.002415 
-0.712722 0.719340 -0.002321 
-0.835070 0.566577 -0.002179 
-0.924491 0.392315 -0.001933 
-0.978091 0.203540 -0.001602 
-0.972344 -0.187966 -0.000742 
-0.913594 -0.376057 -0.000416 
-0.820589 -0.549908 0.000066 
-0.696530 -0.702814 0.000593 
-0.545761 -0.829571 0.001034 
-0.373756 -0.925108 0.001431 
-0.186958 -0.985515 0.001836 
0.202758 -0.991329 0.002343 
0.390316 -0.936139 0.002458 
0.562531 -0.844408 0.002472 
0.712837 -0.719346 0.002362 
0.835075 -0.566587 0.002204 
0.924576 -0.392402 0.001989 
0.978125 -0.203642 0.001676 
0.002803 -0.198121 0.979327 
0.004153 -0.386828 0.923641 
0.005397 -0.561087 0.832486 
0.006374 -0.713904 0.709084 
0.007134 -0.839468 0.558049 
0.007593 -0.932523 0.385338 
0.007908 -0.989282 0.197456 
0.007314 -0.987702 -0.193134 
0.006644 -0.929272 -0.380701 
0.005661 -0.835152 -0.553411 
0.004477 -0.709341 -0.704620 
0.003216 -0.556480 -0.828625 
0.001729 -0.382431 -0.920929 
0.000172 -0.193784 -0.978070 
-0.002708 0.198018 -0.979510 
-0.004104 0.386793 -0.923885 
-0.005362 0.561025 -0.832467 
-0.006303 0.713826 -0.709009 
-0.007051 0.839401 -0.558006 
-0.007524 0.932457 -0.385295 
-0.007836 0.989278 -0.197430 
-0.007264 0.987713 0.193224 
-0.006605 0.929312 0.380837 
-0.005709 0.835338 0.553413 
-0.004506 0.709430 0.704644 
-0.003322 0.556519 0.828655 
-0.001811 0.382521 0.920812 
-0.000214 0.193914 0.977920 
0.975511 -0.007944 0.195811 
0.919521 -0.007925 0.382829 
0.828021 -0.007479 0.555220 
0.704693 -0.006889 0.706424 
0.554119 -0.006058 0.830446 
0.382110 -0.004794 0.922451 
0.195406 -0.003372 0.978913 
-0.192961 -0.000420 0.977922 
-0.379398 0.000962 0.920578 
-0.551434 0.002654 0.828032 
-0.702229 0.003903 0.703752 
-0.825879 0.005191 0.552510 
-0.917799 0.006229 0.380189 
-0.974597 0.007047 0.193277 
-0.975531 0.007870 -0.195730 
-0.919493 0.007910 -0.382748 
-0.827969 0.007413 -0.555143 
-0.704637 0.006853 -0.706388 
-0.553989 0.005938 -0.830527 
-0.382152 0.004640 -0.922619 
-0.195519 0.003376 -0.979195 
0.192848 0.000600 -0.978040 
0.379518 -0.000978 -0.920705 
0.551452 -0.002591 -0.828110 
0.702135 -0.003932 -0.703731 
0.825747 -0.005215 -0.552477 
0.917761 -0.006347 -0.380138 
0.974596 -0.007198 -0.193156 
1.177109 0.182498 0.000618 
1.131459 0.365214 0.000341 
1.058665 0.538798 0.000073 
0.960630 0.699477 -0.000185 
0.839285 0.843510 -0.000319 
0.697283 0.967420 -0.000649 
0.538003 1.068116 -0.000846 
0.365135 1.143044 -0.001027 
0.182609 1.190020 -0.001239 
-0.193260 1.195255 -0.001439 
-0.376967 1.153005 -0.001622 
-0.551758 1.081717 -0.001613 
-0.712412 0.982706 -0.001710 
-0.854824 0.859099 -0.001537 
-0.975827 0.714579 -0.001429 
-1.072171 0.552464 -0.001366 
-1.141450 0.377115 -0.001218 
-1.182376 0.193164 -0.001066 
-1.177256 -0.182577 -0.000600 
-1.131568 -0.365375 -0.000260 
-1.058782 -0.538844 -0.000038 
-0.960780 -0.699654 0.000195 
-0.839202 -0.843677 0.000342 
-0.697201 -0.967444 0.000696 
-0.537954 -1.068022 0.000858 
-0.365118 -1.142963 0.001066 
-0.182605 -1.190054 0.001196 
0.193274 -1.195243 0.001467 
0.377042 -1.152992 0.001616 
0.551785 -1.081728 0.001654 
0.712448 -0.982724 0.001725 
0.854884 -0.859165 0.001568 
0.975908 -0.714642 0.001452 
1.072229 -0.552538 0.001391 
1.141529 -0.377161 0.001241 
1.182408 -0.193157 0.001090 
0.004958 -1.191936 -0.186806 
0.004624 -1.146694 -0.370036 
0.004193 -1.073224 -0.543874 
0.003761 -0.973462 -0.704121 
0.003009 -0.849999 -0.846749 
0.002207 -0.705894 -0.968574 
0.001525 -0.544590 -1.066567 
0.000767 -0.370197 -1.138424 
0.000078 -0.186891 -1.182533 
-0.001724 0.189710 -1.184029 
-0.002393 0.373202 -1.141073 
-0.003057 0.548222 -1.070106 
-0.003648 0.709814 -0.972738 
-0.004113 0.854242 -0.850991 
-0.004745 0.977672 -0.708282 
-0.004903 1.077111 -0.547693 
-0.005080 1.149544 -0.373219 
-0.005196 1.193457 -0.189648 
-0.004964 1.191917 0.186769 
-0.004633 1.146730 0.370089 
-0.004176 1.073504 0.543765 
-0.003847 0.973661 0.704141 
-0.003065 0.850093 0.846822 
-0.002074 0.705908 0.968539 
-0.001543 0.544595 1.066567 
-0.000803 0.370179 1.138336 
-0.000083 0.186820 1.182393 
0.001655 -0.189450 1.183792 
0.002390 -0.373276 1.140926 
0.003120 -0.548150 1.070094 
0.003676 -0.709827 0.972731 
0.004105 -0.854288 0.851055 
0.004783 -0.977726 0.708321 
0.004938 -1.077185 0.547730 
0.005118 -1.149585 0.373223 
0.005224 -1.193469 0.189668 
-1.179314 0.004821 0.186183 
-1.135315 0.004501 0.368684 
-1.063564 0.003918 0.542102 
-0.965622 0.003458 0.702358 
-0.844036 0.002591 0.845238 
-0.701681 0.001835 0.967192 
-0.541607 0.001125 1.065642 
-0.368680 0.000300 1.138208 
-0.186279 -0.000486 1.182589 
0.187959 -0.002171 1.183423 
0.370576 -0.002976 1.139729 
0.544006 -0.003581 1.067927 
0.704039 -0.003971 0.969691 
0.846558 -0.004606 0.847568 
0.968097 -0.005071 0.704538 
1.065542 -0.005143 0.544290 
1.136878 -0.005286 0.370550 
1.180195 -0.005287 0.187976 
1.179240 -0.004813 -0.186166 
1.135221 -0.004483 -0.368627 
1.063393 -0.003907 -0.542062 
0.965512 -0.003396 -0.702309 
0.844015 -0.002597 -0.845157 
0.701743 -0.001911 -0.967196 
0.541653 -0.001069 -1.065793 
0.368552 -0.000251 -1.138337 
0.186402 0.000308 -1.182690 
-0.187945 0.002099 -1.183644 
-0.370596 0.003127 -1.140016 
-0.544075 0.003558 -1.068004 
-0.704183 0.004156 -0.969658 
-0.846553 0.004566 -0.847518 
-0.968061 0.005010 -0.704497 
-1.065495 0.005082 -0.544250 
-1.136845 0.005235 -0.370523 
-1.180211 0.005254 -0.187957 
0.818748 -0.404628 -0.412789 
0.422354 -0.802118 -0.441408 
0.394249 -0.380569 -0.835086 
0.891428 -0.306286 -0.334710 
0.302818 -0.903547 -0.333074 
0.681229 -0.341555 -0.646872 
0.560906 -0.637962 -0.537995 
0.872217 -0.490895 -0.106535 
0.183965 -0.622825 -0.761475 
0.610469 -0.175362 -0.768034 
0.870001 -0.162824 -0.457978 
0.212413 -0.859044 -0.478823 
0.949851 -0.145895 -0.263878 
0.802292 -0.299499 -0.515204 
0.687496 -0.653624 -0.341888 
0.470992 -0.873844 -0.199994 
0.635020 -0.769045 -0.172991 
0.527880 -0.482502 -0.700807 
0.793796 -0.147805 -0.583482 
0.562784 -0.763408 -0.346914 
0.981685 -0.130723 -0.111758 
0.776057 -0.627941 -0.150092 
0.159748 -0.956683 -0.275858 
0.937363 -0.315427 -0.157140 
0.737263 -0.477622 -0.484835 
0.276162 -0.961508 -0.150373 
0.548841 -0.304660 -0.776260 
0.337885 -0.710985 -0.623746 
0.835827 -0.477794 -0.287972 
0.496320 -0.184249 -0.844398 
0.152266 -0.762377 -0.633384 
0.196942 -0.482637 -0.852200 
0.177430 -0.318820 -0.928431 
0.353558 -0.560728 -0.750570 
0.639605 -0.487820 -0.598374 
0.132046 -0.993371 -0.123339 
0.450816 -0.607489 -0.658991 
0.328269 -0.217178 -0.916009 
0.203753 -0.132961 -0.966738 
0.493790 0.582667 -0.637192 
0.495502 0.784571 -0.359558 
0.798945 0.368225 -0.452721 
0.393955 0.469352 -0.785610 
0.342260 0.888780 -0.303458 
0.286206 0.314293 -0.902092 
0.167101 0.165192 -0.969604 
0.754029 0.212395 -0.607594 
0.663279 0.535083 -0.505938 
0.493516 0.846680 -0.171495 
0.595999 0.173861 -0.775508 
0.176208 0.883572 -0.443356 
0.163635 0.478218 -0.863146 
0.547061 0.683085 -0.470489 
0.144068 0.960688 -0.258359 
0.385930 0.138869 -0.907171 
0.119624 0.325635 -0.937259 
0.616178 0.700964 -0.335529 
0.109388 0.630170 -0.772495 
0.161206 0.760331 -0.634461 
0.294858 0.627477 -0.719617 
0.845844 0.480538 -0.170172 
0.601457 0.391766 -0.685468 
0.368444 0.768746 -0.519797 
0.750638 0.549953 -0.335268 
0.117821 0.992125 -0.113164 
0.281052 0.950308 -0.141665 
0.696996 0.686727 -0.148417 
0.938867 0.140620 -0.283535 
0.467446 0.304759 -0.823389 
0.844880 0.405030 -0.314695 
0.868581 0.165268 -0.446826 
0.929779 0.286328 -0.175666 
0.886657 0.278232 -0.338804 
0.974895 0.121506 -0.130292 
0.716552 0.381179 -0.567924 
0.455810 0.456350 0.755629 
0.444445 0.803443 0.380480 
0.822707 0.405528 0.370375 
0.329821 0.310814 0.886088 
0.296017 0.906743 0.293995 
0.896726 0.331064 0.254525 
0.955476 0.161103 0.210116 
0.543707 0.628839 0.540806 
0.105430 0.480441 0.866780 
0.747752 0.160227 0.635136 
0.440316 0.155818 0.879906 
0.420292 0.884283 0.180925 
0.854584 0.466407 0.167049 
0.260653 0.138521 0.952206 
0.245997 0.959694 0.140367 
0.928992 0.315278 0.123320 
0.609743 0.154088 0.771525 
0.511718 0.287356 0.802670 
0.312604 0.627512 0.706155 
0.764611 0.615766 0.113217 
0.658724 0.719541 0.168272 
0.581816 0.490264 0.636090 
0.187494 0.754046 0.625883 
0.749835 0.572410 0.296166 
0.619992 0.681099 0.364121 
0.382842 0.718011 0.571489 
0.542695 0.801083 0.220304 
0.102810 0.991842 0.121707 
0.112201 0.121285 0.983358 
0.459206 0.591742 0.651917 
0.146490 0.613002 0.772498 
0.694894 0.501570 0.495844 
0.636722 0.344967 0.678692 
0.155822 0.307855 0.934611 
0.158103 0.952747 0.266531 
0.776937 0.313729 0.529451 
0.834702 0.133648 0.522681 
0.209442 0.866581 0.450597 
0.879347 0.226576 0.398102 
0.252721 0.475214 0.837392 
0.519013 -0.801257 0.345535 
0.332701 -0.379701 0.868734 
0.334916 -0.886265 0.362889 
0.153819 -0.471762 0.873511 
0.513806 -0.165057 0.843481 
0.434313 -0.897828 0.190942 
0.611621 -0.557789 0.579888 
0.268230 -0.179700 0.947272 
0.235539 -0.968752 0.182185 
0.914140 -0.384203 0.164746 
0.771824 -0.411256 0.499680 
0.743286 -0.672228 0.143792 
0.867596 -0.197655 0.459234 
0.952943 -0.190628 0.235721 
0.509258 -0.330227 0.800855 
0.572633 -0.688889 0.473854 
0.617710 -0.788046 0.165749 
0.713390 -0.649922 0.307008 
[...]
POINT_DATA 1108
SCALARS u float 1
LOOKUP_TABLE default
0.009873
0.009721
0.011328
0.011368
0.003373
0.003246
0.007646
0.007672
0.009236
0.009363
0.002726
0.002580
0.011212
0.012334
0.012490
0.011603
0.010077
0.009116
0.009505
0.013161
0.014656
0.014847
0.013659
0.011784
0.009843
0.009013
0.011071
0.012242
0.012266
0.011430
0.010045
0.009125
0.009585
0.013245
0.014649
0.014898
0.013719
0.011799
0.009945
0.009112
0.004378
0.005872
0.007784
0.009526
0.011001
0.011808
0.011846
0.010255
0.008783
0.007090
0.005588
0.004389
0.003429
0.003018
0.004187
0.005808
0.007713
0.009407
0.010888
0.011705
0.011790
0.010210
0.008749
0.007226
0.005636
0.004457
0.003566
0.003105
0.009563
0.009046
0.008243
0.007331
0.006313
0.005035
0.003870
0.003593
0.004756
0.005997
0.007091
0.008220
0.009056
0.009553
0.009485
0.009045
0.008210
0.007320
0.006216
0.004838
0.003756
0.003595
0.004588
0.005913
0.007182
0.008338
0.009176
0.009688
0.009672
0.011303
0.012126
0.011759
0.010522
0.008772
0.006924
0.006044
0.007117
0.011547
0.013349
0.014410
0.013934
0.012400
0.010603
0.008340
0.006414
0.006236
0.009505
0.011127
0.012002
0.011542
0.010518
0.008841
0.006989
0.006044
0.007135
0.011546
0.013371
0.014437
0.013970
0.012490
0.010699
0.008433
0.006466
0.006219
0.008393
0.007172
0.005878
0.004755
0.003792
0.003197
0.003056
0.003011
0.002819
0.002891
0.003382
0.004684
0.006081
0.007459
0.008838
0.009743
0.010003
0.009923
0.008385
0.007200
0.006078
0.004931
0.003841
0.003135
0.003064
0.003107
0.002974
0.002790
0.003444
0.004671
0.006105
0.007511
0.008913
0.009832
0.010057
0.009951
0.007782
0.007763
0.007377
0.006920
0.006141
0.005471
0.004909
0.003747
0.003045
0.002833
0.003359
0.003883
0.004329
0.005101
0.005812
0.006335
0.006876
0.007302
0.007837
0.007841
0.007517
0.006994
0.006203
0.005454
0.004757
0.003715
0.002875
0.002637
0.003376
0.003823
0.004468
0.005077
0.005781
0.006317
0.006859
0.007267
0.008147
0.010125
0.004218
0.008235
0.011186
0.006244
0.008407
0.010488
0.005089
0.005635
0.007894
0.008959
0.008778
0.007284
0.010677
0.013387
0.013252
0.005846
0.007192
0.011423
0.009102
0.011773
0.010887
0.009039
0.008077
0.012879
0.005058
0.007344
0.009398
0.004843
0.006614
0.003779
0.003089
0.005381
0.006908
0.011930
0.006675
0.003658
0.003243
0.008373
0.009316
0.010930
0.006919
0.009069
0.005370
0.004114
0.009195
0.010105
0.009604
0.007267
0.009586
0.006341
0.009444
0.010257
0.005197
0.005126
0.010381
0.007772
0.008716
0.007355
0.012465
0.008605
0.008477
0.011455
0.010320
0.009291
0.011494
0.010563
0.006705
0.011757
0.010197
0.011880
0.011289
0.010781
0.009976
0.007202
0.008945
0.011236
0.005360
0.008402
0.011443
0.010655
0.009201
0.004582
0.008370
0.005589
0.009078
0.012278
0.004187
0.008856
0.011868
0.007020
0.006700
0.006661
0.012060
0.011152
0.008887
0.006416
0.011484
0.010522
0.007854
0.009992
0.009720
0.003456
0.007988
0.005402
0.010289
0.008464
0.004060
0.008665
0.009855
0.009000
0.007574
0.010139
0.005398
0.015399
0.007782
0.014924
0.007660
0.006554
0.015528
0.012265
0.005251
0.014357
0.010303
0.010708
0.013646
0.008859
0.009218
0.008276
0.014077
0.015194
0.013802
0.004033
0.005597
0.012469
0.013412
0.014189
0.011889
0.013026
0.008261
0.014074
0.010781
0.012666
0.011655
0.009800
0.012531
0.010094
0.009853
0.007393
0.006398
0.010051
0.012853
0.008424
0.009316
0.010649
0.006923
0.009086
0.005511
0.004214
0.009135
0.010060
0.009601
0.007321
0.009662
0.006348
0.009324
0.010286
0.005306
0.005120
0.010266
0.007825
0.008795
0.007456
0.012289
0.008603
0.008566
0.011488
0.010385
0.009305
0.011293
0.010401
0.006752
0.011618
0.009993
0.011677
0.011041
0.010664
0.009871
0.007138
0.008960
0.011221
0.005177
0.008289
0.011450
0.010596
0.009127
0.004458
0.008409
0.005417
0.009049
0.012051
0.004089
0.008905
0.011787
0.007061
0.006684
0.006681
0.011899
0.010945
0.008779
0.006453
0.011525
0.010458
0.007831
0.009964
0.009749
0.003307
0.007978
0.005348
0.010159
0.008428
0.003943
0.008604
0.009829
0.009033
0.007542
0.010260
0.005432
0.015275
0.007669
0.014775
0.007453
0.006502
0.015431
0.012135
0.005061
0.014272
0.010211
0.010619
0.013568
0.008795
0.009142
0.008185
0.013942
0.015123
0.013664
0.003849
0.005463
0.012322
0.013269
0.014067
0.011811
0.012862
0.008186
0.013918
0.010593
0.012553
0.011555
0.009701
0.012399
0.009997
0.009721
0.007373
0.006286
0.009960
0.012792
0.008115
0.010262
0.004289
0.008170
0.011344
0.006230
0.008459
0.010426
0.005170
0.005646
0.007791
0.009145
0.008683
0.007235
0.010640
0.013376
0.013046
0.005899
0.007135
0.011295
0.008977
0.011768
0.010862
0.008931
0.008058
0.012853
0.005090
0.007470
0.009378
0.004911
0.006716
0.003877
0.003147
0.005498
0.006929
0.011830
0.006789
0.003715
0.003294
0.012761
0.009987
0.006236
0.007305
0.014282
0.006254
0.013438
0.004505
0.006060
0.012772
0.002962
0.006345
0.010793
0.008677
0.005639
0.011461
0.004320
0.006671
0.014502
0.011031
0.010258
0.015037
0.005857
0.011961
0.005543
0.011775
0.007394
0.014355
0.006202
0.011854
0.007905
0.008175
0.010125
0.011740
0.009694
0.014196
0.008730
0.005182
0.009555
0.006078
0.007650
0.004870
0.008312
0.006935
0.012752
0.006690
0.013451
0.012777
0.013746
0.009043
0.014907
0.010584
0.013315
0.011082
0.006471
0.012405
0.008571
0.005310
0.012167
0.003816
0.003742
0.003374
0.009161
0.006842
0.004494
0.006034
0.011170
0.006569
0.010699
0.003951
0.006796
0.010417
0.003158
0.008288
0.005432
0.004677
0.006995
0.008811
0.005811
0.004401
0.010914
0.007707
0.007734
0.011692
0.007853
0.009386
0.003741
0.008031
0.006145
0.011659
0.008228
0.009223
0.005852
0.005309
0.007396
0.008317
0.006400
0.010551
0.005959
0.006856
0.007562
0.004282
0.006902
0.005700
0.006807
0.005624
0.009736
0.006115
0.010436
0.009569
0.011088
0.006591
0.011758
0.006940
0.009552
0.009006
0.008217
0.005710
0.009112
0.005282
0.009724
0.004676
0.003283
0.003807
0.008182
0.008119
0.005891
0.004689
0.009883
0.004070
0.010026
0.005581
0.003282
0.008417
0.006595
0.010605
0.004965
0.004989
0.011842
0.004033
0.007895
0.004805
0.008847
0.006697
0.005041
0.007423
0.011375
0.003784
0.005222
0.008596
0.004103
0.008261
0.010038
0.003298
0.007293
0.006388
0.009160
0.009395
0.007511
0.010267
0.006034
0.011154
0.003774
0.005582
0.008949
0.004417
0.009853
0.005258
0.011137
0.004983
0.010952
0.007245
0.005728
0.005267
0.009029
0.009600
0.007387
0.008751
0.002814
0.006377
0.010466
0.006904
0.006146
0.006292
0.006224
0.005901
0.004297
0.007314
0.010442
0.003054
0.005443
0.002891
0.005638
0.003290
0.006511
0.004364
0.010143
0.006320
0.011667
0.003002
0.008734
0.006565
0.013105
0.004627
0.003619
0.004318
0.005564
0.002798
0.006377
0.012754
0.005620
0.003652
0.006086
0.002923
0.005912
0.009058
0.008786
0.012145
0.006469
0.009504
0.007346
0.005497
0.005729
0.002958
0.003392
0.010950
0.008082
0.011320
0.004800
0.012473
0.003282
0.007899
0.002574
0.006315
0.004291
0.005410
0.003436
0.005119
0.004049
0.005739
0.006681
0.002947
0.007655
0.004207
0.011186
0.005169
0.010236
0.010042
0.009710
0.007538
0.004916
0.010651
0.005944
0.010006
0.005588
0.009969
0.006123
0.005138
0.007462
0.006271
0.004875
0.004721
0.007562
0.003778
0.005009
0.008517
0.010912
0.011668
0.008086
0.005557
0.008281
0.004331
0.008759
0.011295
0.006120
0.006574
0.008441
0.006250
0.003796
0.003230
0.007326
0.006185
0.007474
0.008455
0.006913
0.010301
0.004165
0.006182
0.005847
0.004836
0.005619
0.003850
0.008800
0.005573
0.009611
0.005552
0.010044
0.010982
0.011345
0.007048
0.008150
0.009530
0.007399
0.008671
0.008944
0.006715
0.003845
0.009876
0.003156
0.002607
0.004317
0.007265
0.009569
0.003061
0.005480
0.002891
0.005681
0.010813
0.003240
0.006548
0.010593
0.004288
0.010189
0.006206
0.002987
0.008802
0.006297
0.013229
0.004663
0.003631
0.004291
0.005606
0.002789
0.006461
0.008385
0.005586
0.003583
0.006133
0.002865
0.005936
0.009082
0.006331
0.009134
0.007233
0.005395
0.005745
0.002928
0.003402
0.011171
0.007760
0.011278
0.004744
0.012442
0.003216
0.007901
0.002572
0.006363
0.004323
0.005462
0.003415
0.005152
0.004003
0.005722
0.006682
0.002800
0.004094
0.007571
0.011627
0.005203
0.008461
0.012917
0.012281
0.012889
0.010116
0.005718
0.007390
0.014400
0.006326
0.013527
0.006095
0.012819
0.006337
0.010903
0.005675
0.008780
0.005697
0.011587
0.004396
0.006531
0.014607
0.011157
0.010346
0.015116
0.005893
0.012071
0.004063
0.011898
0.007483
0.014428
0.006215
0.011908
0.007996
0.004847
0.003213
0.007853
0.010211
0.011876
0.009704
0.014315
0.008833
0.005240
0.009654
0.005808
0.007506
0.004887
0.008409
0.006992
0.012877
0.006772
0.013587
0.012911
0.013819
0.009142
0.015011
0.010682
0.013429
0.011130
0.006482
0.008544
0.012509
0.003783
0.012267
0.003054
0.002724
0.005490
0.009098
0.010466
0.006163
0.004151
0.006572
0.003951
0.010672
0.008313
0.003102
0.009666
0.009707
0.007552
0.008851
0.007739
0.005989
0.011553
0.008531
0.004755
0.005583
0.007193
0.004338
0.006130
0.004606
0.009567
0.007230
0.007776
0.003563
0.006827
0.003538
0.010391
0.009818
0.009011
0.008153
0.008319
0.005455
0.006130
0.009733
0.006635
0.010876
0.009746
0.010988
0.007622
0.007567
0.006506
0.006272
0.005184
0.005564
0.005583
0.006224
0.004180
0.006772
0.006428
0.002965
0.008272
0.007331
0.007983
0.011470
0.006922
0.011718
0.008931
0.010943
0.003353
0.007514
0.010395
0.006218
0.007796
0.003100
0.004006
0.010634
0.004408
0.002836
0.008020
0.010478
0.008120
0.008236
0.009821
0.010261
0.007583
0.009259
0.006107
0.005209
0.014059
0.011705
0.011320
0.010449
0.010409
0.011158
0.010320
0.010680
0.010791
0.009185
0.003955
0.005885
0.008346
0.013424
0.015699
0.009288
0.011086
0.013537
0.010990
0.010389
0.008603
0.006670
0.006406
0.012562
0.009316
0.006737
0.010194
0.010314
0.004162
0.010816
0.010605
0.007818
0.009743
0.003095
0.004345
0.007781
0.006031
0.013023
0.011229
0.009774
0.011151
0.004683
0.004469
0.003489
0.007917
0.012280
0.003691
0.005683
0.010075
0.011319
0.010951
0.010185
0.003817
0.006481
0.009162
0.004959
0.004105
0.009144
0.009538
0.005676
0.007386
0.009223
0.010527
0.009749
0.011553
0.012065
0.014988
0.013007
0.013764
0.008368
0.011800
0.014387
0.010024
0.006516
0.008002
0.005511
0.003680
0.004217
0.012093
0.005874
0.010104
0.003987
