# vtk DataFile Version 2.0
Unstructured Grid Example
ASCII
DATASET UNSTRUCTURED_GRID
POINTS 1108 float
1.011666 0.015120 -0.002481 
-1.011484 -0.014907 0.002333 
0.015058 0.984364 0.004120 
-0.015051 -0.984259 -0.004161 
-0.002466 0.004011 1.004596 
0.002518 -0.004171 -1.004043 
1.210952 0.009989 -0.001646 
-1.210941 -0.010091 0.001546 
0.009974 1.185220 0.002571 
-0.010184 -1.185084 -0.002714 
-0.001593 0.002673 1.204311 
0.001569 -0.002589 -1.204021 
0.997500 0.209111 -0.001532 
0.944104 0.395690 -0.000743 
0.853112 0.566753 0.000038 
0.728120 0.715439 0.001093 
0.574806 0.834959 0.002042 
0.400032 0.921195 0.002831 
0.210817 0.971607 0.003488 
-0.180266 0.960309 0.004462 
-0.367895 0.899876 0.004724 
-0.542096 0.806273 0.004710 
-0.696154 0.683245 0.004527 
-0.824447 0.534102 0.004251 
-0.922687 0.363897 0.003770 
-0.986040 0.178608 0.003125 
-0.997250 -0.208987 0.001448 
-0.943941 -0.395609 0.000811 
-0.852693 -0.566615 -0.000129 
-0.727737 -0.715479 -0.001156 
-0.574703 -0.835172 -0.002018 
-0.400097 -0.921484 -0.002792 
-0.210952 -0.971560 -0.003581 
0.180134 -0.960220 -0.004571 
0.367796 -0.899967 -0.004794 
0.541993 -0.806233 -0.004822 
0.695930 -0.683235 -0.004607 
0.824437 -0.534082 -0.004299 
0.922520 -0.363726 -0.003880 
0.985974 -0.178409 -0.003270 
-0.005467 -0.189179 0.983631 
-0.008100 -0.374600 0.924345 
-0.010527 -0.544810 0.829488 
-0.012433 -0.693849 0.703250 
-0.013916 -0.815868 0.550736 
-0.014811 -0.907020 0.377505 
-0.015426 -0.964213 0.190476 
-0.014265 -0.967293 -0.198907 
-0.012958 -0.913362 -0.386550 
-0.011042 -0.824287 -0.559781 
-0.008732 -0.702748 -0.711958 
-0.006273 -0.553795 -0.837018 
-0.003373 -0.383175 -0.929635 
-0.000336 -0.197638 -0.986081 
0.005283 0.189380 -0.983273 
0.008005 0.374668 -0.923869 
0.010458 0.544931 -0.829525 
0.012293 0.694000 -0.703396 
0.013752 0.815999 -0.550819 
0.014675 0.907148 -0.377590 
0.015283 0.964220 -0.190527 
0.014169 0.967272 0.198732 
0.012883 0.913284 0.386285 
0.011136 0.823924 0.559778 
0.008789 0.702574 0.711910 
0.006480 0.553719 0.836960 
0.003533 0.382999 0.929863 
0.000417 0.197385 0.986375 
0.991073 0.015495 0.193685 
0.932381 0.015458 0.382399 
0.838196 0.014588 0.556253 
0.711814 0.013436 0.708438 
0.558401 0.011817 0.833466 
0.383802 0.009352 0.926666 
0.194475 0.006577 0.984437 
-0.199244 0.000820 0.986371 
-0.389092 -0.001876 0.930319 
-0.563637 -0.005177 0.838176 
-0.716622 -0.007612 0.713650 
-0.842373 -0.010126 0.561539 
-0.935740 -0.012150 0.387549 
-0.992857 -0.013746 0.198627 
-0.991034 -0.015351 -0.193842 
-0.932435 -0.015429 -0.382557 
-0.838298 -0.014460 -0.556404 
-0.711925 -0.013367 -0.708509 
-0.558655 -0.011581 -0.833307 
-0.383720 -0.009051 -0.926337 
-0.194254 -0.006584 -0.983887 
0.199465 -0.001170 -0.986140 
0.388857 0.001907 -0.930071 
0.563603 0.005053 -0.838023 
0.716804 0.007670 -0.713692 
0.842632 0.010172 -0.561604 
0.935814 0.012380 -0.387647 
0.992857 0.014040 -0.198863 
1.201058 0.197910 -0.001206 
1.160400 0.381755 -0.000666 
1.089773 0.556472 -0.000142 
0.990697 0.716783 0.000360 
0.866557 0.858316 0.000621 
0.721063 0.977453 0.001265 
0.558024 1.071338 0.001649 
0.381910 1.137804 0.002004 
0.197693 1.175876 0.002417 
-0.176919 1.165663 0.002807 
-0.358831 1.118373 0.003164 
-0.531195 1.044808 0.003146 
-0.691553 0.947637 0.003335 
-0.836248 0.827909 0.002999 
-0.961055 0.687325 0.002788 
-1.063428 0.529818 0.002664 
-1.140913 0.358543 0.002376 
-1.190786 0.177105 0.002079 
-1.200772 -0.197755 0.001171 
-1.160188 -0.381442 0.000507 
-1.089544 -0.556383 0.000075 
-0.990405 -0.716438 -0.000381 
-0.866719 -0.857990 -0.000666 
-0.721222 -0.977406 -0.001358 
-0.558119 -1.071520 -0.001674 
-0.381944 -1.137962 -0.002080 
-0.197701 -1.175809 -0.002332 
0.176892 -1.165688 -0.002861 
0.358685 -1.118399 -0.003152 
0.531142 -1.044787 -0.003226 
0.691483 -0.947602 -0.003364 
0.836131 -0.827781 -0.003058 
0.960897 -0.687204 -0.002832 
1.063315 -0.529674 -0.002713 
1.140758 -0.358453 -0.002421 
1.190722 -0.177119 -0.002127 
-0.009671 -1.172139 -0.189506 
-0.009020 -1.130684 -0.372351 
-0.008179 -1.061375 -0.546573 
-0.007335 -0.965668 -0.707725 
-0.005869 -0.845660 -0.851998 
-0.004304 -0.704266 -0.975203 
-0.002975 -0.545176 -1.074358 
-0.001496 -0.372036 -1.146815 
-0.000152 -0.189342 -1.190479 
0.003363 0.183843 -1.187561 
0.004667 0.366174 -1.141648 
0.005962 0.538092 -1.067456 
0.007115 0.696621 -0.967080 
0.008022 0.837383 -0.843725 
0.009256 0.957456 -0.699608 
0.009562 1.053793 -0.539123 
0.009909 1.125125 -0.366142 
0.010135 1.169171 -0.183963 
0.009682 1.172175 0.189580 
0.009036 1.130613 0.372247 
0.008145 1.060828 0.546785 
0.007504 0.965280 0.707686 
0.005977 0.845476 0.851856 
0.004046 0.704239 0.975271 
0.003009 0.545167 1.074358 
0.001567 0.372071 1.146987 
0.000161 0.189479 1.190752 
-0.003227 -0.184349 1.188023 
-0.004661 -0.366030 1.141934 
-0.006085 -0.538232 1.067480 
-0.007169 -0.696594 0.967093 
-0.008007 -0.837294 0.843599 
-0.009329 -0.957351 0.699533 
-0.009631 -1.053649 0.539052 
-0.009983 -1.125045 0.366134 
-0.010189 -1.169149 0.183925 
-1.196758 -0.009403 0.190721 
-1.152879 -0.008779 0.374988 
-1.080216 -0.007642 0.550029 
-0.980960 -0.006744 0.711162 
-0.857290 -0.005053 0.854946 
-0.712484 -0.003579 0.977897 
-0.550994 -0.002195 1.076162 
-0.374996 -0.000586 1.147237 
-0.190536 0.000948 1.190369 
0.187259 0.004236 1.188744 
0.371297 0.005806 1.144268 
0.546316 0.006984 1.071707 
0.707884 0.007745 0.973022 
0.852372 0.008985 0.850401 
0.976131 0.009892 0.706911 
1.076358 0.010032 0.545760 
1.149829 0.010310 0.371348 
1.195039 0.010312 0.187225 
1.196903 0.009388 -0.190755 
1.153063 0.008744 -0.375099 
1.080550 0.007621 -0.550107 
0.981175 0.006624 -0.711258 
0.857331 0.005065 -0.855103 
0.712362 0.003728 -0.977890 
0.550904 0.002086 -1.075868 
0.375245 0.000489 -1.146984 
0.190294 -0.000600 -1.190172 
-0.187284 -0.004093 -1.188311 
-0.371258 -0.006099 -1.143710 
-0.546180 -0.006940 -1.071555 
-0.707604 -0.008105 -0.973087 
-0.852380 -0.008907 -0.850498 
-0.976202 -0.009772 -0.706991 
-1.076451 -0.009913 -0.545838 
-1.149894 -0.010210 -0.371401 
-1.195008 -0.010248 -0.187261 
0.819004 -0.381375 -0.418876 
0.407478 -0.776635 -0.446069 
0.394051 -0.371406 -0.843504 
0.896045 -0.283282 -0.341022 
0.284270 -0.876686 -0.337944 
0.683996 -0.325009 -0.654486 
0.551966 -0.615483 -0.543479 
0.865881 -0.461194 -0.112475 
0.174674 -0.613267 -0.768390 
0.617931 -0.163928 -0.777523 
0.881049 -0.143788 -0.465599 
0.196022 -0.838932 -0.483886 
0.961997 -0.123928 -0.270261 
0.807152 -0.279818 -0.522340 
0.676190 -0.624689 -0.347116 
0.451358 -0.839978 -0.205270 
0.617859 -0.734383 -0.178730 
0.525105 -0.467067 -0.707989 
0.804406 -0.131631 -0.592206 
0.547735 -0.733646 -0.351781 
0.994143 -0.107522 -0.117027 
0.764430 -0.595724 -0.155884 
0.139338 -0.932422 -0.281023 
0.940487 -0.289592 -0.162971 
0.734524 -0.454723 -0.490837 
0.254787 -0.930624 -0.156154 
0.552153 -0.292941 -0.784885 
0.326830 -0.693184 -0.629261 
0.831572 -0.451049 -0.293926 
0.502595 -0.175958 -0.854201 
0.139065 -0.749258 -0.639251 
0.191926 -0.476713 -0.860205 
0.176467 -0.316457 -0.937179 
0.347606 -0.547767 -0.757546 
0.636506 -0.468655 -0.604583 
0.110068 -0.966497 -0.129149 
0.443648 -0.590187 -0.665089 
0.331735 -0.213093 -0.925379 
0.207660 -0.132505 -0.975459 
0.518069 0.584183 -0.641502 
0.522983 0.785096 -0.359758 
0.827246 0.381689 -0.460327 
0.413772 0.467803 -0.790263 
0.367763 0.881178 -0.300649 
0.300715 0.311110 -0.907604 
0.176451 0.160603 -0.975835 
0.776444 0.224426 -0.617025 
0.691256 0.543506 -0.511882 
0.521757 0.848138 -0.169675 
0.613679 0.181171 -0.785189 
0.198900 0.867340 -0.438718 
0.179732 0.468771 -0.864423 
0.574570 0.686321 -0.473535 
0.167593 0.942496 -0.252752 
0.398436 0.140568 -0.915880 
0.131804 0.317258 -0.940459 
0.645889 0.708075 -0.337721 
0.127391 0.616166 -0.770124 
0.182079 0.745692 -0.631103 
0.315281 0.620198 -0.720525 
0.878342 0.497449 -0.173428 
0.624766 0.397999 -0.693368 
0.392819 0.763157 -0.519350 
0.781605 0.562652 -0.339966 
0.141201 0.973491 -0.107398 
0.306114 0.940077 -0.137344 
0.728933 0.698119 -0.148929 
0.962730 0.159566 -0.290082 
0.485425 0.307209 -0.831270 
0.875190 0.420838 -0.320596 
0.892545 0.181323 -0.455373 
0.958742 0.305527 -0.180263 
0.914478 0.295179 -0.345745 
0.998489 0.142307 -0.135043 
0.742845 0.391541 -0.576159 
0.471689 0.466982 0.764921 
0.469333 0.808497 0.387662 
0.849340 0.424564 0.375598 
0.338735 0.320186 0.895187 
0.319715 0.902985 0.300228 
0.923684 0.351221 0.257163 
0.977741 0.183298 0.210157 
0.567049 0.639756 0.549352 
0.114960 0.481930 0.876254 
0.762626 0.179318 0.640048 
0.447282 0.169095 0.886773 
0.446472 0.885009 0.186533 
0.885317 0.485432 0.169489 
0.264104 0.147926 0.959434 
0.269960 0.950757 0.145725 
0.957178 0.336052 0.123760 
0.620407 0.170885 0.777279 
0.523822 0.300670 0.810858 
0.329445 0.631918 0.715275 
0.796464 0.631389 0.115941 
0.689033 0.731581 0.172641 
0.602459 0.503830 0.644885 
0.204678 0.752156 0.633596 
0.779007 0.588836 0.301383 
0.647624 0.693476 0.370982 
0.403755 0.723097 0.580080 
0.570682 0.808390 0.226008 
0.125393 0.975086 0.127334 
0.112787 0.128004 0.991008 
0.478774 0.601187 0.661044 
0.159816 0.613212 0.781239 
0.719496 0.517716 0.503299 
0.654327 0.360894 0.686441 
0.161815 0.312884 0.943683 
0.180324 0.941501 0.272311 
0.798390 0.332303 0.535801 
0.850734 0.154556 0.525983 
0.230062 0.861511 0.457559 
0.900830 0.247148 0.401286 
0.264428 0.480262 0.846936 
0.497582 -0.762661 0.334790 
0.323313 -0.359084 0.865000 
0.312439 -0.849898 0.352341 
0.141112 -0.453413 0.869953 
0.512379 -0.145772 0.843326 
0.411450 -0.859253 0.181548 
0.597411 -0.525837 0.570583 
0.263707 -0.164968 0.948869 
0.212398 -0.934358 0.173467 
0.910688 -0.354576 0.158870 
0.764126 -0.381358 0.492959 
0.727452 -0.636074 0.135833 
0.870333 -0.171826 0.456296 
0.958995 -0.164385 0.231927 
0.502132 -0.307233 0.796758 
0.554389 -0.653147 0.463142 
0.597604 -0.749003 0.156749 
0.696906 -0.613799 0.297961 
[...]
POINT_DATA 1108
SCALARS u float 1
LOOKUP_TABLE default
0.019258
0.018961
0.022095
0.022173
0.006580
0.006331
0.014914
0.014965
0.018015
0.018263
0.005317
0.005033
0.021870
0.024057
0.024361
0.022631
0.019656
0.017782
0.018540
0.025670
0.028586
0.028959
0.026643
0.022984
0.019198
0.017579
0.021594
0.023879
0.023926
0.022295
0.019592
0.017798
0.018696
0.025836
0.028573
0.029060
0.026759
0.023015
0.019398
0.017773
0.008540
0.011453
0.015183
0.018580
0.021458
0.023031
0.023106
0.020003
0.017132
0.013829
0.010899
0.008560
0.006689
0.005886
0.008167
0.011328
0.015045
0.018349
0.021238
0.022831
0.022996
0.019916
0.017065
0.014095
0.010994
0.008693
0.006956
0.006056
0.018652
0.017644
0.016079
0.014299
0.012314
0.009822
0.007548
0.007009
0.009276
0.011698
0.013831
0.016033
0.017663
0.018632
0.018500
0.017643
0.016013
0.014278
0.012125
0.009436
0.007326
0.007013
0.008949
0.011533
0.014008
0.016263
0.017898
0.018896
0.018866
0.022047
0.023653
0.022936
0.020523
0.017109
0.013506
0.011789
0.013882
0.022523
0.026037
0.028107
0.027179
0.024186
0.020682
0.016267
0.012510
0.012163
0.018540
0.021704
0.023409
0.022513
0.020515
0.017244
0.013633
0.011789
0.013918
0.022521
0.026081
0.028161
0.027249
0.024362
0.020869
0.016449
0.012612
0.012131
0.016371
0.013990
0.011465
0.009276
0.007396
0.006236
0.005960
0.005873
0.005499
0.005640
0.006597
0.009136
0.011861
0.014548
0.017238
0.019004
0.019511
0.019355
0.016356
0.014043
0.011855
0.009618
0.007491
0.006115
0.005977
0.006060
0.005801
0.005442
0.006717
0.009110
0.011909
0.014650
0.017384
0.019177
0.019617
0.019409
0.015179
0.015141
0.014389
0.013497
0.011979
0.010672
0.009575
0.007308
0.005939
0.005525
0.006552
0.007574
0.008444
0.009950
0.011337
0.012357
0.013412
0.014244
0.015287
0.015293
0.014663
0.013641
0.012099
0.010637
0.009280
0.007245
0.005608
0.005144
0.006585
0.007457
0.008715
0.009902
0.011277
0.012322
0.013379
0.014175
0.015891
0.019749
0.008227
0.016063
0.021818
0.012179
0.016398
0.020457
0.009927
0.010992
0.015398
0.017476
0.017122
0.014208
0.020826
0.026112
0.025849
0.011403
0.014028
0.022281
0.017754
0.022964
0.021235
0.017630
0.015754
0.025121
0.009865
0.014325
0.018331
0.009447
0.012900
0.007371
0.006024
0.010496
0.013474
0.023270
0.013020
0.007135
0.006325
0.016332
0.018170
0.021320
0.013496
0.017690
0.010474
0.008024
0.017936
0.019711
0.018733
0.014175
0.018697
0.012368
0.018421
0.020006
0.010137
0.009999
0.020248
0.015159
0.017000
0.014346
0.024314
0.016784
0.016534
0.022343
0.020129
0.018122
0.022418
0.020603
0.013078
0.022933
0.019889
0.023171
0.022019
0.021030
0.019459
0.014047
0.017447
0.021916
0.010455
0.016388
0.022320
0.020783
0.017948
0.008938
0.016325
0.010902
0.017706
0.023949
0.008167
0.017274
0.023149
0.013692
0.013069
0.012992
0.023523
0.021752
0.017334
0.012515
0.022400
0.020523
0.015320
0.019490
0.018959
0.006741
0.015580
0.010536
0.020069
0.016509
0.007920
0.016901
0.019223
0.017554
0.014773
0.019776
0.010528
0.030036
0.015178
0.029110
0.014941
0.012784
0.030287
0.023922
0.010242
0.028004
0.020097
0.020887
0.026617
0.017280
0.017980
0.016143
0.027457
0.029635
0.026922
0.007867
0.010917
0.024322
0.026160
0.027675
0.023189
0.025407
0.016112
0.027452
0.021028
0.024705
0.022733
0.019115
0.024443
0.019689
0.019219
0.014420
0.012480
0.019605
0.025070
0.016431
0.018171
0.020772
0.013504
0.017722
0.010750
0.008219
0.017817
0.019623
0.018727
0.014280
0.018845
0.012382
0.018188
0.020063
0.010349
0.009987
0.020023
0.015263
0.017154
0.014543
0.023971
0.016781
0.016708
0.022407
0.020256
0.018149
0.022028
0.020287
0.013169
0.022661
0.019492
0.022776
0.021535
0.020800
0.019253
0.013923
0.017477
0.021887
0.010097
0.016168
0.022333
0.020668
0.017802
0.008696
0.016402
0.010565
0.017650
0.023505
0.007976
0.017370
0.022991
0.013772
0.013038
0.013031
0.023210
0.021348
0.017123
0.012587
0.022480
0.020399
0.015275
0.019434
0.019015
0.006451
0.015561
0.010432
0.019815
0.016439
0.007691
0.016783
0.019171
0.017618
0.014710
0.020012
0.010595
0.029795
0.014958
0.028819
0.014536
0.012683
0.030099
0.023670
0.009872
0.027838
0.019916
0.020713
0.026466
0.017154
0.017831
0.015965
0.027195
0.029497
0.026652
0.007508
0.010656
0.024035
0.025881
0.027439
0.023037
0.025087
0.015967
0.027147
0.020663
0.024486
0.022539
0.018921
0.024184
0.019500
0.018962
0.014381
0.012262
0.019427
0.024951
0.015828
0.020017
0.008367
0.015937
0.022128
0.012152
0.016499
0.020337
0.010084
0.011013
0.015197
0.017838
0.016937
0.014111
0.020753
0.026089
0.025447
0.011506
0.013916
0.022031
0.017510
0.022954
0.021186
0.017420
0.015718
0.025069
0.009928
0.014570
0.018292
0.009579
0.013099
0.007563
0.006138
0.010724
0.013515
0.023075
0.013242
0.007246
0.006425
0.024891
0.019480
0.012163
0.014248
0.027857
0.012199
0.026210
0.008787
0.011820
0.024913
0.005777
0.012377
0.021051
0.016925
0.010999
0.022356
0.008426
0.013012
0.028286
0.021517
0.020008
0.029330
0.011424
0.023329
0.010811
0.022967
0.014422
0.027999
0.012096
0.023121
0.015418
0.015946
0.019748
0.022900
0.018908
0.027691
0.017029
0.010108
0.018638
0.011856
0.014922
0.009499
0.016213
0.013526
0.024874
0.013048
0.026237
0.024921
0.026811
0.017638
0.029077
0.020644
0.025971
0.021615
0.012621
0.024196
0.016718
0.010356
0.023732
0.007444
0.007299
0.006581
0.017869
0.013345
0.008766
0.011769
0.021787
0.012813
0.020869
0.007706
0.013257
0.020318
0.006160
0.016166
0.010596
0.009123
0.013644
0.017186
0.011334
0.008584
0.021287
0.015033
0.015085
0.022805
0.015317
0.018308
0.007297
0.015664
0.011986
0.022742
0.016050
0.017990
0.011414
0.010355
0.014426
0.016222
0.012484
0.020579
0.011624
0.013373
0.014750
0.008352
0.013462
0.011118
0.013278
0.010970
0.018990
0.011927
0.020355
0.018664
0.021627
0.012856
0.022934
0.013537
0.018631
0.017567
0.016026
0.011137
0.017774
0.010302
0.018967
0.009121
0.006404
0.007426
0.015959
0.015837
0.011491
0.009146
0.019277
0.007938
0.019557
0.010886
0.006402
0.016418
0.012863
0.020685
0.009685
0.009730
0.023099
0.007867
0.015399
0.009372
0.017256
0.013062
0.009832
0.014478
0.022187
0.007381
0.010187
0.016768
0.008003
0.016113
0.019580
0.006433
0.014225
0.012459
0.017866
0.018326
0.014651
0.020025
0.011770
0.021756
0.007362
0.010887
0.017455
0.008615
0.019219
0.010256
0.021724
0.009719
0.021363
0.014131
0.011172
0.010274
0.017611
0.018725
0.014408
0.017069
0.005489
0.012439
0.020414
0.013467
0.011988
0.012272
0.012140
0.011510
0.008381
0.014267
0.020367
0.005956
0.010617
0.005639
0.010998
0.006417
0.012700
0.008512
0.019783
0.012328
0.022757
0.005856
0.017036
0.012805
0.025561
0.009026
0.007060
0.008423
0.010853
0.005457
0.012439
0.024877
0.010961
0.007123
0.011871
0.005701
0.011531
0.017667
0.017137
0.023690
0.012618
0.018538
0.014329
0.010721
0.011174
0.005769
0.006616
0.021358
0.015765
0.022079
0.009363
0.024328
0.006401
0.015407
0.005021
0.012317
0.008370
0.010552
0.006703
0.009984
0.007898
0.011194
0.013031
0.005748
0.014932
0.008206
0.021819
0.010082
0.019965
0.019587
0.018940
0.014704
0.009589
0.020775
0.011594
0.019518
0.010900
0.019445
0.011943
0.010023
0.014555
0.012232
0.009510
0.009209
0.014750
0.007369
0.009770
0.016613
0.021284
0.022759
0.015772
0.010840
0.016153
0.008448
0.017085
0.022031
0.011937
0.012823
0.016464
0.012190
0.007405
0.006300
0.014290
0.012063
0.014579
0.016491
0.013483
0.020091
0.008125
0.012058
0.011405
0.009433
0.010960
0.007510
0.017166
0.010871
0.018746
0.010829
0.019591
0.021421
0.022129
0.013747
0.015898
0.018588
0.014431
0.016912
0.017445
0.013098
0.007499
0.019264
0.006155
0.005084
0.008421
0.014171
0.018664
0.005971
0.010689
0.005640
0.011080
0.021092
0.006320
0.012773
0.020661
0.008364
0.019874
0.012105
0.005826
0.017168
0.012282
0.025804
0.009096
0.007082
0.008370
0.010934
0.005440
0.012602
0.016356
0.010895
0.006989
0.011963
0.005588
0.011578
0.017715
0.012349
0.017816
0.014109
0.010524
0.011206
0.005711
0.006636
0.021788
0.015137
0.021998
0.009254
0.024269
0.006273
0.015412
0.005017
0.012411
0.008431
0.010654
0.006660
0.010049
0.007809
0.011161
0.013033
0.005461
0.007985
0.014767
0.022679
0.010149
0.016504
0.025195
0.023954
0.025141
0.019731
0.011153
0.014414
0.028088
0.012339
0.026385
0.011887
0.025003
0.012360
0.021267
0.011068
0.017126
0.011113
0.022601
0.008574
0.012739
0.028492
0.021762
0.020180
0.029484
0.011494
0.023545
0.007925
0.023208
0.014595
0.028142
0.012123
0.023226
0.015596
0.009454
0.006267
0.015317
0.019917
0.023164
0.018927
0.027922
0.017228
0.010222
0.018829
0.011329
0.014640
0.009532
0.016402
0.013639
0.025116
0.013208
0.026501
0.025183
0.026954
0.017832
0.029280
0.020836
0.026194
0.021709
0.012643
0.016666
0.024400
0.007378
0.023928
0.005957
0.005313
0.010708
0.017746
0.020415
0.012022
0.008097
0.012818
0.007707
0.020816
0.016215
0.006050
0.018854
0.018933
0.014730
0.017265
0.015096
0.011682
0.022534
0.016640
0.009274
0.010891
0.014030
0.008462
0.011957
0.008984
0.018661
0.014102
0.015167
0.006949
0.013317
0.006900
0.020269
0.019149
0.017575
0.015902
0.016226
0.010640
0.011957
0.018985
0.012941
0.021213
0.019010
0.021431
0.014866
0.014759
0.012691
0.012234
0.010111
0.010853
0.010890
0.012139
0.008153
0.013209
0.012539
0.005784
0.016135
0.014299
0.015572
0.022372
0.013501
0.022857
0.017420
0.021344
0.006541
0.014656
0.020275
0.012129
0.015205
0.006047
0.007815
0.020741
0.008598
0.005532
0.015642
0.020437
0.015839
0.016064
0.019156
0.020015
0.014791
0.018061
0.011911
0.010161
0.027422
0.022830
0.022080
0.020382
0.020303
0.021764
0.020129
0.020831
0.021049
0.017916
0.007714
0.011479
0.016279
0.026184
0.030621
0.018116
0.021624
0.026403
0.021435
0.020263
0.016781
0.013010
0.012495
0.024503
0.018172
0.013140
0.019883
0.020119
0.008117
0.021096
0.020685
0.015250
0.019003
0.006037
0.008475
0.015177
0.011763
0.025402
0.021902
0.019065
0.021750
0.009134
0.008717
0.006804
0.015441
0.023952
0.007200
0.011085
0.019651
0.022077
0.021361
0.019866
0.007445
0.012642
0.017871
0.009673
0.008007
0.017836
0.018603
0.011071
0.014406
0.017990
0.020533
0.019015
0.022535
0.023534
0.029235
0.025370
0.026848
0.016321
0.023016
0.028063
0.019551
0.012710
0.015608
0.010749
0.007178
0.008225
0.023588
0.011458
0.019709
0.007777
