# vtk DataFile Version 2.0
Unstructured Grid Example
ASCII
DATASET UNSTRUCTURED_GRID
POINTS 1108 float
0.997184 -0.001078 0.026586 
-0.997183 0.001046 -0.026336 
-0.001381 0.984575 0.004061 
0.001193 -0.984227 -0.004220 
0.026162 0.004089 1.018426 
-0.026051 -0.004239 -1.018278 
1.197311 -0.000750 0.017618 
-1.197354 0.000478 -0.017632 
-0.000978 1.185060 0.002755 
0.000900 -1.185278 -0.002988 
0.017474 0.002759 1.217342 
-0.017566 -0.002862 -1.217436 
0.977610 0.191912 0.026738 
0.920117 0.376951 0.026031 
0.826941 0.547124 0.024125 
0.702124 0.696250 0.021682 
0.550766 0.818320 0.017608 
0.378839 0.909031 0.013616 
0.192487 0.965116 0.009096 
-0.195179 0.966533 -0.000689 
-0.381351 0.911100 -0.005922 
-0.553673 0.820700 -0.011268 
-0.704617 0.698838 -0.015917 
-0.828414 0.549779 -0.019393 
-0.921430 0.379446 -0.022927 
-0.978176 0.193971 -0.025013 
-0.977595 -0.192127 -0.026517 
-0.920462 -0.377158 -0.025814 
-0.827615 -0.547427 -0.023949 
-0.702758 -0.696430 -0.021493 
-0.551098 -0.818308 -0.017838 
-0.379000 -0.909002 -0.013981 
-0.192505 -0.965213 -0.009033 
0.194803 -0.966104 0.000704 
0.381285 -0.910563 0.005851 
0.553556 -0.820501 0.011548 
0.704665 -0.698798 0.015850 
0.828454 -0.549711 0.019418 
0.921531 -0.379499 0.022983 
0.978162 -0.194055 0.025081 
0.025793 -0.190000 0.996912 
0.024639 -0.376143 0.936595 
0.022236 -0.546747 0.839974 
0.019245 -0.695788 0.711445 
0.015651 -0.817373 0.557021 
0.010909 -0.908158 0.381450 
0.006077 -0.964272 0.192105 
-0.003941 -0.967357 -0.200305 
-0.008893 -0.913908 -0.390035 
-0.013655 -0.825320 -0.565878 
-0.017614 -0.704595 -0.720547 
-0.020878 -0.555882 -0.847932 
-0.023660 -0.384825 -0.942587 
-0.025218 -0.198448 -1.000057 
-0.025759 0.190068 -0.996854 
-0.024361 0.376172 -0.936114 
-0.022430 0.546687 -0.839910 
-0.019360 0.695842 -0.711665 
-0.015604 0.817500 -0.557162 
-0.011090 0.908190 -0.381611 
-0.006307 0.964292 -0.192191 
0.003722 0.967344 0.200227 
0.008994 0.913762 0.390387 
0.013664 0.825395 0.565792 
0.017757 0.704485 0.720423 
0.021068 0.555809 0.848086 
0.023741 0.384680 0.942287 
0.025389 0.198297 0.999863 
0.988346 -0.000258 0.223967 
0.941105 0.000647 0.415557 
0.856437 0.001257 0.591879 
0.735971 0.001912 0.745899 
0.585653 0.002884 0.870054 
0.412042 0.003360 0.958573 
0.222592 0.003706 1.008170 
-0.169259 0.004074 0.988752 
-0.355997 0.004464 0.921264 
-0.528179 0.003905 0.819837 
-0.679418 0.003645 0.689981 
-0.805456 0.003418 0.534280 
-0.903373 0.002383 0.359360 
-0.968025 0.001784 0.170378 
-0.988381 0.000203 -0.223763 
-0.940890 -0.000630 -0.415316 
-0.855965 -0.001180 -0.591771 
-0.735648 -0.001901 -0.745761 
-0.585430 -0.002663 -0.870456 
-0.412057 -0.003284 -0.958627 
-0.222528 -0.003778 -1.008138 
0.169481 -0.004316 -0.988754 
0.356110 -0.004461 -0.921352 
0.528457 -0.004061 -0.819980 
0.679618 -0.003722 -0.689962 
0.805431 -0.003379 -0.534326 
0.903348 -0.002566 -0.359214 
0.968278 -0.001908 -0.170323 
1.182204 0.185652 0.017676 
1.137564 0.367250 0.017594 
1.064479 0.539627 0.016746 
0.965695 0.698162 0.015996 
0.843196 0.838931 0.014595 
0.699956 0.959431 0.012112 
0.540056 1.055914 0.010289 
0.367183 1.126582 0.007849 
0.185494 1.170133 0.005760 
-0.187382 1.171090 -0.000240 
-0.369031 1.128685 -0.003387 
-0.542174 1.058016 -0.005359 
-0.701894 0.961921 -0.007629 
-0.845434 0.841331 -0.010059 
-0.968085 0.699801 -0.012906 
-1.066116 0.541386 -0.014288 
-1.138917 0.368628 -0.015621 
-1.182890 0.186864 -0.016770 
-1.182310 -0.185640 -0.017757 
-1.137901 -0.367381 -0.017554 
-1.065017 -0.539803 -0.016782 
-0.966222 -0.698489 -0.015872 
-0.843217 -0.839166 -0.014150 
-0.699979 -0.959654 -0.012054 
-0.540198 -1.055890 -0.010170 
-0.367268 -1.126659 -0.007892 
-0.185513 -1.170058 -0.005783 
0.187163 -1.170987 0.000183 
0.368840 -1.128247 0.003295 
0.541882 -1.057813 0.005442 
0.701717 -0.961757 0.007795 
0.845308 -0.841439 0.010176 
0.968042 -0.699873 0.013156 
1.066118 -0.541451 0.014368 
1.138943 -0.368704 0.015636 
1.182868 -0.187008 0.016848 
-0.002285 -1.172155 -0.190950 
-0.004646 -1.131035 -0.374489 
-0.007330 -1.062540 -0.550078 
-0.009281 -0.967704 -0.713235 
-0.011850 -0.848455 -0.858938 
-0.014149 -0.707763 -0.984377 
-0.015152 -0.548107 -1.085625 
-0.016208 -0.374346 -1.159470 
-0.017116 -0.190852 -1.203633 
-0.017286 0.185040 -1.200872 
-0.016826 0.368055 -1.153698 
-0.015976 0.540606 -1.078255 
-0.014735 0.699092 -0.976114 
-0.012971 0.839877 -0.851094 
-0.010475 0.959848 -0.704738 
-0.008551 1.055564 -0.542855 
-0.006631 1.125627 -0.368540 
-0.003532 1.169457 -0.184892 
0.002408 1.172384 0.191080 
0.004606 1.130840 0.374691 
0.006786 1.062917 0.549453 
0.009234 0.967801 0.713237 
0.011852 0.848345 0.858989 
0.014403 0.707739 0.984038 
0.015278 0.548051 1.085538 
0.016341 0.374320 1.159233 
0.017190 0.190940 1.203561 
0.017464 -0.185191 1.200837 
0.016828 -0.367909 1.154006 
0.015957 -0.540783 1.078308 
0.014792 -0.699203 0.975834 
0.012893 -0.839919 0.850885 
0.010414 -0.959761 0.704571 
0.008514 -1.055451 0.542748 
0.006581 -1.125598 0.368391 
0.003460 -1.169391 0.184605 
-1.173623 0.001151 0.170903 
-1.122542 0.001268 0.352773 
-1.045494 0.001931 0.525379 
-0.945452 0.001910 0.685308 
-0.824059 0.002714 0.830538 
-0.682086 0.002721 0.956519 
-0.524351 0.002774 1.059876 
-0.352823 0.002688 1.140250 
-0.170985 0.002869 1.193307 
0.207199 0.002475 1.211223 
0.393243 0.002447 1.173882 
0.570955 0.002144 1.106172 
0.734211 0.001718 1.008446 
0.877266 0.001428 0.883649 
0.997958 0.001179 0.737218 
1.092321 0.000500 0.572388 
1.156924 0.000021 0.393844 
1.191722 -0.000319 0.206861 
1.173700 -0.001238 -0.170629 
1.122394 -0.001621 -0.352862 
1.045357 -0.001963 -0.525376 
0.945629 -0.002063 -0.685398 
0.824006 -0.002647 -0.830663 
0.682035 -0.002555 -0.956601 
0.524413 -0.002733 -1.060026 
0.353067 -0.002788 -1.140194 
0.170980 -0.002799 -1.193455 
-0.207042 -0.002427 -1.211061 
-0.392983 -0.002393 -1.173885 
-0.570969 -0.002252 -1.106407 
-0.734099 -0.002135 -1.007967 
-0.877114 -0.001412 -0.883445 
-0.997655 -0.001122 -0.736978 
-1.091917 -0.000428 -0.572158 
-1.156747 0.000017 -0.393754 
-1.191727 0.000278 -0.206806 
0.799473 -0.391536 -0.396360 
0.403563 -0.783832 -0.439040 
0.370416 -0.376249 -0.835999 
0.875672 -0.295299 -0.315918 
0.287148 -0.882639 -0.333458 
0.657819 -0.332804 -0.634987 
0.539210 -0.622633 -0.531306 
0.862751 -0.475114 -0.088611 
0.161357 -0.616587 -0.771496 
0.586324 -0.172030 -0.758977 
0.851278 -0.155943 -0.439209 
0.194001 -0.843033 -0.483533 
0.938466 -0.138030 -0.242627 
0.781071 -0.289592 -0.498824 
0.668769 -0.634937 -0.329885 
0.456835 -0.849921 -0.194703 
0.620601 -0.746837 -0.162295 
0.504609 -0.472924 -0.695798 
0.771394 -0.142417 -0.567244 
0.544281 -0.742998 -0.339671 
0.977628 -0.122641 -0.088901 
0.763303 -0.608881 -0.135272 
0.146031 -0.935762 -0.280128 
0.928326 -0.303614 -0.136701 
0.715702 -0.463349 -0.471230 
0.264501 -0.937490 -0.150748 
0.524707 -0.299311 -0.769882 
0.316664 -0.698515 -0.625412 
0.819171 -0.462642 -0.271678 
0.472468 -0.182431 -0.840368 
0.131456 -0.752270 -0.642165 
0.173244 -0.479733 -0.863132 
0.153305 -0.319376 -0.941207 
0.330887 -0.552593 -0.752612 
0.616453 -0.475531 -0.588540 
0.122141 -0.969910 -0.127288 
0.428736 -0.595890 -0.656398 
0.304326 -0.217399 -0.920717 
0.179905 -0.135793 -0.977673 
0.478618 0.568284 -0.624512 
0.488717 0.767294 -0.344504 
0.785305 0.361993 -0.433119 
0.375897 0.456679 -0.778062 
0.338521 0.868138 -0.290837 
0.265346 0.304685 -0.902714 
0.144562 0.157923 -0.979487 
0.734937 0.208310 -0.590354 
0.650132 0.523707 -0.488800 
0.492939 0.830828 -0.155030 
0.574353 0.168889 -0.764168 
0.169368 0.860750 -0.436240 
0.145407 0.465088 -0.865716 
0.536358 0.667181 -0.454935 
0.142832 0.936713 -0.250264 
0.363210 0.133010 -0.905809 
0.098839 0.315452 -0.946079 
0.609455 0.687597 -0.317634 
0.094087 0.613679 -0.773232 
0.149398 0.740595 -0.630230 
0.279421 0.610907 -0.713568 
0.844543 0.476060 -0.147520 
0.582964 0.381832 -0.671550 
0.358132 0.749440 -0.508286 
0.742257 0.540850 -0.315339 
0.120754 0.968865 -0.104780 
0.282071 0.929851 -0.129678 
0.697274 0.677140 -0.127664 
0.930029 0.142099 -0.261132 
0.446785 0.295801 -0.815276 
0.836414 0.399974 -0.293656 
0.853070 0.164132 -0.426595 
0.927066 0.286157 -0.152324 
0.876503 0.275876 -0.317258 
0.972977 0.124948 -0.106394 
0.700237 0.373086 -0.550591 
0.485939 0.464021 0.792357 
0.462384 0.799945 0.403880 
0.846523 0.411729 0.403347 
0.359887 0.318458 0.921761 
0.309348 0.896238 0.311011 
0.915449 0.336143 0.285187 
0.971257 0.167555 0.239977 
0.568860 0.632876 0.572015 
0.131323 0.483200 0.892213 
0.779264 0.169156 0.674613 
0.472009 0.164389 0.918766 
0.431130 0.873863 0.199333 
0.869233 0.468572 0.195085 
0.289633 0.145741 0.985757 
0.254835 0.943467 0.153689 
0.941458 0.319081 0.151340 
0.642788 0.163357 0.812902 
0.543961 0.296288 0.842496 
0.338454 0.630600 0.735128 
0.775873 0.613909 0.138386 
0.671211 0.716069 0.192570 
0.610978 0.497656 0.672184 
0.209729 0.751765 0.647653 
0.768896 0.574944 0.325232 
0.640124 0.682187 0.392198 
0.405925 0.718928 0.598486 
0.555856 0.795533 0.242474 
0.111161 0.972149 0.130664 
0.138939 0.127449 1.010389 
0.486275 0.597018 0.684576 
0.171185 0.614002 0.796717 
0.721622 0.508079 0.529882 
0.668313 0.353811 0.718005 
0.183409 0.313119 0.963846 
0.170404 0.937674 0.279001 
0.806682 0.321996 0.566537 
0.863810 0.142422 0.559651 
0.227119 0.858624 0.468264 
0.903947 0.233950 0.432274 
0.280636 0.480441 0.868386 
0.521260 -0.779971 0.356732 
0.355653 -0.369550 0.894004 
0.336560 -0.862588 0.368083 
0.173455 -0.459930 0.889622 
0.542737 -0.156451 0.879163 
0.430541 -0.873258 0.197233 
0.627058 -0.544441 0.602863 
0.294259 -0.171334 0.976315 
0.232006 -0.942764 0.182376 
0.918278 -0.371540 0.187642 
0.789285 -0.399709 0.527536 
0.741048 -0.653837 0.159962 
0.889023 -0.188034 0.491072 
0.964524 -0.180836 0.263187 
0.534120 -0.320638 0.831656 
0.581055 -0.671834 0.490360 
0.614422 -0.766279 0.177930 
0.717861 -0.632546 0.325236 
[...]
POINT_DATA 1108
SCALARS u float 1
LOOKUP_TABLE default
0.026757
0.026507
0.016010
0.016371
0.032260
0.032104
0.017838
0.017836
0.015223
0.015049
0.024773
0.024915
0.027113
0.026919
0.025959
0.024755
0.022496
0.020510
0.018304
0.014269
0.014148
0.015702
0.018108
0.020469
0.023283
0.025173
0.026872
0.026619
0.025588
0.024390
0.022615
0.020745
0.018187
0.014701
0.014612
0.016054
0.018062
0.020506
0.023321
0.025239
0.030843
0.028487
0.025389
0.022744
0.021113
0.019175
0.017848
0.014935
0.015250
0.018181
0.022297
0.026589
0.030239
0.031916
0.030773
0.028028
0.025559
0.022858
0.021004
0.019243
0.017895
0.014863
0.015576
0.018113
0.022350
0.026833
0.030108
0.031919
0.029851
0.037118
0.044083
0.048390
0.049010
0.045573
0.038987
0.027338
0.027183
0.030014
0.032761
0.033789
0.031148
0.027869
0.029662
0.036806
0.043725
0.048087
0.049180
0.045618
0.038926
0.027166
0.027063
0.029726
0.032610
0.033775
0.031288
0.027812
0.018052
0.018330
0.018150
0.018267
0.018263
0.017476
0.017464
0.017044
0.016308
0.014142
0.013153
0.012681
0.012219
0.012750
0.014309
0.015009
0.015948
0.016954
0.018115
0.018202
0.018002
0.017890
0.017779
0.017285
0.017374
0.016980
0.016383
0.014251
0.013577
0.012958
0.012493
0.012813
0.014516
0.015070
0.015948
0.017027
0.013656
0.011822
0.011233
0.012575
0.015773
0.019744
0.022585
0.024626
0.025329
0.023469
0.021101
0.018830
0.016859
0.015801
0.015182
0.016218
0.017141
0.016405
0.013490
0.012039
0.010362
0.012518
0.015809
0.019695
0.022599
0.024536
0.025338
0.023561
0.021305
0.018801
0.016782
0.015681
0.015210
0.016307
0.017169
0.016505
0.020465
0.026038
0.030705
0.032382
0.030492
0.027437
0.022638
0.018226
0.018806
0.032578
0.039654
0.045339
0.047456
0.045403
0.041880
0.036003
0.027843
0.020214
0.020653
0.026103
0.030815
0.032197
0.030455
0.027422
0.022515
0.018003
0.018864
0.032352
0.039507
0.045544
0.047025
0.045148
0.041499
0.035566
0.027669
0.020163
0.027276
0.017255
0.023876
0.027355
0.015133
0.028495
0.021930
0.021993
0.021133
0.029366
0.030998
0.016087
0.028083
0.029779
0.022147
0.016164
0.018526
0.023936
0.032316
0.019112
0.025997
0.020630
0.014622
0.024773
0.026696
0.014340
0.026950
0.018623
0.024574
0.027018
0.018575
0.023501
0.025778
0.020992
0.025780
0.014695
0.020993
0.025215
0.026575
0.031136
0.028152
0.033885
0.029063
0.024817
0.027180
0.027458
0.034592
0.032885
0.024927
0.032142
0.023279
0.025769
0.031068
0.020984
0.028049
0.027101
0.029636
0.024462
0.024174
0.027189
0.028640
0.033423
0.027878
0.031611
0.018798
0.021337
0.027018
0.030284
0.030462
0.031471
0.033715
0.028664
0.031941
0.027605
0.034293
0.041910
0.023601
0.034530
0.042584
0.018314
0.031323
0.030981
0.033152
0.031820
0.046223
0.047027
0.019752
0.027867
0.041916
0.017524
0.028209
0.049330
0.046735
0.032835
0.025283
0.024137
0.039945
0.025278
0.028958
0.028085
0.028924
0.022079
0.015702
0.036286
0.036002
0.029324
0.036500
0.044881
0.036744
0.016126
0.041585
0.042995
0.019684
0.037353
0.036829
0.019440
0.037378
0.017074
0.030077
0.046330
0.015419
0.033154
0.039792
0.015292
0.025582
0.036234
0.020086
0.038717
0.030304
0.042231
0.025362
0.017811
0.024103
0.035198
0.033712
0.021032
0.017837
0.021797
0.022837
0.028396
0.044783
0.018682
0.034701
0.030270
0.027948
0.040828
0.025924
0.025432
0.030974
0.046853
0.043160
0.031867
0.015729
0.031349
0.028338
0.033492
0.029447
0.025109
0.027144
0.027330
0.034409
0.033076
0.025194
0.032563
0.023289
0.025931
0.030593
0.020784
0.028165
0.027092
0.029612
0.024329
0.024147
0.027225
0.028097
0.033585
0.027937
0.031409
0.018789
0.021465
0.026787
0.030031
0.030457
0.031530
0.033568
0.028282
0.031722
0.027513
0.034511
0.041136
0.023337
0.033914
0.042632
0.018480
0.031092
0.030816
0.033243
0.031685
0.046178
0.046973
0.019855
0.027613
0.041752
0.017432
0.027965
0.048808
0.046633
0.032369
0.024897
0.024226
0.039766
0.024632
0.028814
0.028039
0.028811
0.022183
0.015872
0.036313
0.035210
0.029267
0.036271
0.044481
0.036862
0.016414
0.041201
0.042547
0.019808
0.037302
0.036812
0.019286
0.037290
0.017016
0.030124
0.046599
0.015229
0.033047
0.039785
0.015086
0.025540
0.035999
0.020039
0.038516
0.030120
0.042038
0.025436
0.017504
0.023956
0.034975
0.033508
0.020908
0.017879
0.021831
0.022862
0.028334
0.044646
0.018709
0.034619
0.030037
0.027604
0.040638
0.025675
0.025376
0.030788
0.046752
0.043254
0.031574
0.015529
0.027286
0.017250
0.024051
0.027480
0.015207
0.028504
0.021908
0.022033
0.021167
0.029509
0.031056
0.015589
0.027909
0.029768
0.022072
0.015930
0.018025
0.023981
0.032352
0.018978
0.025887
0.020545
0.014627
0.024823
0.026683
0.014119
0.027093
0.018869
0.024531
0.027210
0.018687
0.023636
0.025882
0.021190
0.025756
0.014514
0.021191
0.025320
0.026643
0.019839
0.030183
0.031835
0.022650
0.011736
0.022377
0.012520
0.033785
0.018003
0.014042
0.030498
0.041115
0.016639
0.022214
0.037824
0.013484
0.044999
0.021060
0.013500
0.020326
0.015590
0.011229
0.029386
0.014579
0.026546
0.025681
0.017704
0.012458
0.022134
0.014924
0.033631
0.036288
0.024478
0.023801
0.031202
0.013298
0.027995
0.043448
0.014456
0.041356
0.026965
0.045811
0.016764
0.035545
0.013697
0.029513
0.012188
0.015001
0.011587
0.019609
0.011360
0.027440
0.019017
0.015112
0.018239
0.017945
0.034749
0.039170
0.012764
0.041354
0.025398
0.037055
0.029330
0.029641
0.021790
0.022613
0.027119
0.020913
0.025068
0.018643
0.018484
0.020225
0.018649
0.032957
0.021991
0.020283
0.019867
0.032982
0.026548
0.017521
0.028201
0.026390
0.021726
0.022457
0.019765
0.028832
0.018074
0.030720
0.020527
0.021900
0.018494
0.023071
0.026340
0.025113
0.030712
0.032246
0.028665
0.031041
0.026003
0.017824
0.032450
0.021281
0.029462
0.017779
0.030826
0.023843
0.033291
0.023396
0.030743
0.025172
0.021929
0.023992
0.026420
0.028693
0.032022
0.019217
0.016616
0.026649
0.033453
0.024107
0.021175
0.020977
0.018677
0.017821
0.039871
0.025753
0.013660
0.039826
0.028221
0.036572
0.023984
0.012643
0.035615
0.022863
0.013854
0.018318
0.025077
0.018549
0.018204
0.027493
0.015037
0.013717
0.038019
0.044650
0.046870
0.039488
0.019178
0.030326
0.012257
0.033325
0.042137
0.030644
0.019177
0.030843
0.018300
0.024341
0.021604
0.027780
0.030568
0.030109
0.039704
0.016546
0.021494
0.016032
0.016278
0.017407
0.015842
0.032416
0.022392
0.035516
0.023699
0.043698
0.046783
0.043796
0.034541
0.032604
0.037726
0.018786
0.029830
0.032479
0.025736
0.013922
0.044542
0.014678
0.011497
0.014801
0.025127
0.018989
0.014255
0.017229
0.024668
0.016924
0.022117
0.018035
0.021747
0.013925
0.018714
0.013444
0.016877
0.016056
0.017847
0.011266
0.014734
0.028291
0.022811
0.024013
0.030328
0.018535
0.017987
0.014181
0.021946
0.018416
0.026861
0.020369
0.018384
0.016065
0.012264
0.013510
0.016140
0.018991
0.022023
0.018709
0.025247
0.018126
0.014903
0.015130
0.013350
0.015858
0.012350
0.014976
0.015083
0.021274
0.015789
0.022184
0.027569
0.030428
0.020282
0.027764
0.020528
0.024931
0.018338
0.021083
0.022066
0.016834
0.013513
0.028237
0.013333
0.013709
0.022627
0.035371
0.039014
0.024741
0.012585
0.023902
0.012951
0.019007
0.014933
0.022041
0.043584
0.045614
0.028141
0.014676
0.038675
0.026847
0.046747
0.016660
0.021925
0.018197
0.014921
0.011857
0.030236
0.043394
0.029802
0.019401
0.014155
0.013204
0.022761
0.038536
0.032493
0.037628
0.041651
0.030842
0.029193
0.035808
0.016934
0.030166
0.016721
0.044205
0.043648
0.033100
0.046881
0.021387
0.037595
0.018071
0.031336
0.012913
0.016586
0.016417
0.022154
0.013918
0.023704
0.030233
0.014790
0.018739
0.037680
0.023466
0.038031
0.015738
0.032945
0.029487
0.025075
0.018890
0.014167
0.017067
0.024628
0.016855
0.022126
0.013857
0.017987
0.021848
0.014002
0.013714
0.018736
0.012991
0.016059
0.017976
0.011179
0.014852
0.028280
0.022649
0.023823
0.030291
0.018504
0.017986
0.012326
0.021927
0.018253
0.026937
0.020360
0.018400
0.016580
0.015675
0.019376
0.022110
0.018470
0.025239
0.017905
0.014959
0.015486
0.013081
0.017646
0.012227
0.015219
0.014885
0.021286
0.015647
0.022264
0.027461
0.030323
0.020060
0.027732
0.020391
0.024946
0.018409
0.021073
0.016523
0.022180
0.015522
0.028128
0.012321
0.013986
0.013778
0.019800
0.030181
0.034396
0.022789
0.011804
0.022492
0.012672
0.018069
0.014248
0.041346
0.016653
0.042803
0.022161
0.038048
0.013475
0.044618
0.021034
0.013618
0.020476
0.015654
0.011367
0.029646
0.014602
0.040809
0.025648
0.017735
0.012619
0.022238
0.015055
0.033202
0.027085
0.036534
0.037494
0.024726
0.023805
0.031512
0.013263
0.028254
0.043656
0.014411
0.039669
0.026981
0.045865
0.016668
0.035790
0.013667
0.029795
0.012151
0.015157
0.011765
0.019677
0.011452
0.027640
0.018928
0.015251
0.018338
0.035227
0.017993
0.034830
0.012862
0.030267
0.028256
0.026496
0.031255
0.030028
0.022682
0.019476
0.020898
0.018205
0.025936
0.018399
0.019281
0.021361
0.026100
0.032372
0.033077
0.022076
0.027055
0.021122
0.032637
0.022447
0.024312
0.019586
0.017773
0.020536
0.020074
0.029922
0.030571
0.019852
0.017846
0.018590
0.018012
0.031525
0.030197
0.033370
0.032014
0.029955
0.024962
0.026135
0.020975
0.030341
0.026651
0.032628
0.021188
0.033050
0.025809
0.028461
0.024122
0.022798
0.021587
0.018026
0.022609
0.019272
0.028660
0.029127
0.020402
0.016697
0.030671
0.028071
0.026517
0.017730
0.021605
0.026477
0.020071
0.023351
0.023931
0.037301
0.026304
0.028724
0.032844
0.032127
0.011910
0.006182
0.023840
0.022276
0.027039
0.023959
0.039331
0.022827
0.024579
0.026409
0.040016
0.030458
0.005516
0.015423
0.019106
0.018366
0.023114
0.037117
0.031541
0.035335
0.030693
0.032855
0.026820
0.039776
0.038303
0.034566
0.032991
0.021425
0.040585
0.039823
0.015426
0.031466
0.014016
0.030481
0.045690
0.025227
0.032429
0.026615
0.043657
0.018484
0.018656
0.039432
0.020096
0.023601
0.036511
0.043985
0.030474
0.029607
0.026976
0.029264
0.021371
0.029813
0.034921
0.029831
0.030100
0.026014
0.028014
0.028792
0.030102
0.037955
0.044948
0.023189
0.031596
0.037382
0.038031
0.038105
0.042447
0.025739
0.030921
0.034997
0.042176
0.037853
0.036099
0.033202
0.038554
0.036393
0.044702
0.039894
0.032270
0.016869
0.018569
0.014646
0.023996
0.017183
0.016702
0.029083
0.032791
0.027711
0.028613
0.030590
0.031466
0.015043
0.011532
0.029845
0.008990
