# vtk DataFile Version 2.0
Unstructured Grid Example
ASCII
DATASET UNSTRUCTURED_GRID
POINTS 1108 float
1.017473 0.022646 -0.003716 
-1.017200 -0.022327 0.003494 
0.022553 0.976581 0.006171 
-0.022542 -0.976424 -0.006232 
-0.003693 0.006008 1.006884 
0.003772 -0.006246 -1.006055 
1.216403 0.014962 -0.002465 
-1.216387 -0.015114 0.002315 
0.014939 1.177864 0.003850 
-0.015253 -1.177660 -0.004064 
-0.002386 0.004003 1.206457 
0.002350 -0.003878 -1.206022 
1.005820 0.216089 -0.002295 
0.954170 0.402164 -0.001112 
0.863885 0.572319 0.000057 
0.738579 0.719587 0.001637 
0.584381 0.836696 0.003059 
0.408667 0.919859 0.004240 
0.218645 0.967039 0.005225 
-0.172887 0.950117 0.006683 
-0.360534 0.887928 0.007075 
-0.535389 0.793732 0.007055 
-0.690703 0.671367 0.006780 
-0.820951 0.523416 0.006366 
-0.922094 0.354545 0.005647 
-0.988655 0.170405 0.004680 
-1.005445 -0.215904 0.002168 
-0.953927 -0.402042 0.001215 
-0.863258 -0.572112 -0.000193 
-0.738006 -0.719646 -0.001731 
-0.584227 -0.837015 -0.003022 
-0.408764 -0.920292 -0.004181 
-0.218848 -0.966967 -0.005364 
0.172690 -0.949984 -0.006846 
0.360386 -0.888065 -0.007180 
0.535235 -0.793672 -0.007223 
0.690367 -0.671352 -0.006901 
0.820936 -0.523386 -0.006438 
0.921844 -0.354290 -0.005811 
0.988557 -0.170107 -0.004897 
-0.008189 -0.186237 0.985047 
-0.012131 -0.370576 0.924577 
-0.015767 -0.539454 0.828502 
-0.018621 -0.687250 0.701330 
-0.020842 -0.808102 0.548329 
-0.022183 -0.898628 0.374927 
-0.023104 -0.955964 0.188179 
-0.021366 -0.960578 -0.200807 
-0.019408 -0.908127 -0.388474 
-0.016538 -0.820711 -0.561877 
-0.013079 -0.700578 -0.714373 
-0.009395 -0.552912 -0.839779 
-0.005052 -0.383420 -0.932499 
-0.000503 -0.198906 -0.988717 
0.007912 0.186538 -0.984511 
0.011989 0.370678 -0.923864 
0.015663 0.539635 -0.828557 
0.018412 0.687477 -0.701549 
0.020597 0.808298 -0.548453 
0.021980 0.898820 -0.375055 
0.022891 0.955975 -0.188255 
0.021222 0.960545 0.200544 
0.019296 0.908010 0.388077 
0.016679 0.820168 0.561873 
0.013164 0.700318 0.714301 
0.009706 0.552798 0.839693 
0.005292 0.383157 0.932841 
0.000624 0.198527 0.989157 
0.996194 0.023208 0.192986 
0.936613 0.023153 0.382257 
0.841544 0.021850 0.556592 
0.714157 0.020124 0.709101 
0.559809 0.017699 0.834459 
0.384358 0.014006 0.928053 
0.194169 0.009851 0.986255 
-0.201311 0.001228 0.989151 
-0.392282 -0.002809 0.933524 
-0.567652 -0.007754 0.841514 
-0.721358 -0.011401 0.716906 
-0.847801 -0.015166 0.564509 
-0.941644 -0.018198 0.389971 
-0.998865 -0.020588 0.200387 
-0.996135 -0.022992 -0.193221 
-0.936693 -0.023109 -0.382494 
-0.841696 -0.021658 -0.556819 
-0.714323 -0.020021 -0.709207 
-0.560191 -0.017346 -0.834222 
-0.384236 -0.013557 -0.927561 
-0.193838 -0.009862 -0.985431 
0.201642 -0.001752 -0.988806 
0.391930 0.002856 -0.933153 
0.567601 0.007569 -0.841285 
0.721630 0.011488 -0.716970 
0.848189 0.015235 -0.564607 
0.941754 0.018542 -0.390118 
0.998865 0.021028 -0.200741 
1.208938 0.202982 -0.001806 
1.169923 0.387198 -0.000997 
1.100009 0.562288 -0.000212 
1.000590 0.722477 0.000539 
0.875530 0.863187 0.000931 
0.728888 0.980755 0.001895 
0.564611 1.072398 0.002470 
0.387429 1.136080 0.003001 
0.202657 1.171222 0.003620 
-0.171542 1.155926 0.004205 
-0.352863 1.106978 0.004739 
-0.524429 1.032664 0.004711 
-0.684690 0.936098 0.004996 
-0.830136 0.817646 0.004491 
-0.956194 0.678357 0.004175 
-1.060551 0.522367 0.003991 
-1.140737 0.352432 0.003559 
-1.193553 0.171821 0.003113 
-1.208510 -0.202749 0.001754 
-1.169605 -0.386729 0.000760 
-1.099666 -0.562154 0.000112 
-1.000154 -0.721961 -0.000570 
-0.875774 -0.862699 -0.000998 
-0.729126 -0.980684 -0.002034 
-0.564754 -1.072672 -0.002508 
-0.387481 -1.136316 -0.003115 
-0.202668 -1.171122 -0.003493 
0.171501 -1.155963 -0.004285 
0.352644 -1.107016 -0.004721 
0.524349 -1.032632 -0.004831 
0.684584 -0.936046 -0.005038 
0.829961 -0.817454 -0.004581 
0.955957 -0.678175 -0.004242 
1.060381 -0.522150 -0.004064 
1.140504 -0.352297 -0.003625 
1.193458 -0.171841 -0.003185 
-0.014485 -1.165625 -0.190395 
-0.013509 -1.125416 -0.373113 
-0.012250 -1.057476 -0.547461 
-0.010986 -0.963103 -0.708911 
-0.008790 -0.844232 -0.853725 
-0.006446 -0.703730 -0.977384 
-0.004455 -0.545369 -1.076922 
-0.002240 -0.372641 -1.149576 
-0.000228 -0.190148 -1.193094 
0.005037 0.181913 -1.188723 
0.006990 0.363862 -1.141838 
0.008930 0.534758 -1.066583 
0.010656 0.692279 -0.965219 
0.012015 0.831835 -0.841334 
0.013863 0.950804 -0.696753 
0.014322 1.046121 -0.536303 
0.014841 1.117090 -0.363813 
0.015180 1.161180 -0.182092 
0.014501 1.165679 0.190505 
0.013534 1.125310 0.372957 
0.012199 1.056658 0.547779 
0.011239 0.962522 0.708853 
0.008953 0.843957 0.853512 
0.006060 0.703690 0.977487 
0.004506 0.545355 1.076922 
0.002347 0.372693 1.149834 
0.000241 0.190354 1.193503 
-0.004834 -0.182670 1.189416 
-0.006982 -0.363646 1.142265 
-0.009113 -0.534969 1.066619 
-0.010738 -0.692240 0.965238 
-0.011993 -0.831702 0.841145 
-0.013973 -0.950647 0.696641 
-0.014425 -1.045905 0.536197 
-0.014952 -1.116970 0.363801 
-0.015261 -1.161146 0.182035 
-1.202498 -0.014083 0.192215 
-1.158659 -0.013148 0.377062 
-1.085695 -0.011445 0.552638 
-0.986007 -0.010101 0.714059 
-0.861652 -0.007569 0.858140 
-0.716038 -0.005361 0.981420 
-0.554083 -0.003287 1.079624 
-0.377075 -0.000877 1.150207 
-0.191936 0.001419 1.192929 
0.187028 0.006344 1.190494 
0.371534 0.008695 1.145762 
0.547076 0.010461 1.072951 
0.709149 0.011601 0.974119 
0.854285 0.013457 0.851334 
0.978775 0.014815 0.707691 
1.079917 0.015025 0.546244 
1.154091 0.015442 0.371611 
1.199924 0.015444 0.186978 
1.202715 0.014061 -0.192266 
1.158934 0.013096 -0.377229 
1.086195 0.011414 -0.552754 
0.986328 0.009921 -0.714203 
0.861712 0.007586 -0.858376 
0.715857 0.005583 -0.981408 
0.553948 0.003124 -1.079183 
0.377448 0.000732 -1.149829 
0.191575 -0.000899 -1.192635 
-0.187067 -0.006131 -1.189847 
-0.371476 -0.009135 -1.144925 
-0.546873 -0.010394 -1.072724 
-0.708730 -0.012140 -0.974216 
-0.854297 -0.013340 -0.851478 
-0.978880 -0.014636 -0.707811 
-1.080056 -0.014847 -0.546361 
-1.154188 -0.015292 -0.371690 
-1.199877 -0.015349 -0.187032 
0.819088 -0.373724 -0.420879 
0.402583 -0.768250 -0.447602 
0.393986 -0.368391 -0.846274 
0.897564 -0.275712 -0.343099 
0.278167 -0.867848 -0.339547 
0.684906 -0.319565 -0.656992 
0.549024 -0.608086 -0.545284 
0.863795 -0.451422 -0.114429 
0.171617 -0.610121 -0.770665 
0.620387 -0.160166 -0.780645 
0.884685 -0.137524 -0.468107 
0.190629 -0.832313 -0.485552 
0.965994 -0.116700 -0.272361 
0.808751 -0.273342 -0.524688 
0.672470 -0.615168 -0.348837 
0.444898 -0.828834 -0.207006 
0.612212 -0.722978 -0.180618 
0.524192 -0.461988 -0.710352 
0.807897 -0.126309 -0.595077 
0.542783 -0.723852 -0.353383 
0.998243 -0.099888 -0.118761 
0.760605 -0.585123 -0.157789 
0.132622 -0.924439 -0.282723 
0.941515 -0.281091 -0.164890 
0.733623 -0.447189 -0.492812 
0.247754 -0.920462 -0.158056 
0.553243 -0.289085 -0.787724 
0.323192 -0.687326 -0.631076 
0.830172 -0.442249 -0.295886 
0.504660 -0.173230 -0.857426 
0.134721 -0.744942 -0.641182 
0.190276 -0.474763 -0.862839 
0.176149 -0.315679 -0.940058 
0.345647 -0.543503 -0.759841 
0.635487 -0.462349 -0.606627 
0.102836 -0.957655 -0.131061 
0.441290 -0.584494 -0.667095 
0.332876 -0.211748 -0.928462 
0.208945 -0.132355 -0.978329 
0.526058 0.584682 -0.642920 
0.532025 0.785268 -0.359823 
0.836558 0.386119 -0.462830 
0.420293 0.467293 -0.791794 
0.376155 0.878677 -0.299725 
0.305489 0.310062 -0.909417 
0.179527 0.159093 -0.977886 
0.783820 0.228385 -0.620128 
0.700461 0.546278 -0.513838 
0.531049 0.848618 -0.169076 
0.619497 0.183577 -0.788374 
0.206367 0.861999 -0.437192 
0.185029 0.465662 -0.864843 
0.583621 0.687386 -0.474537 
0.175334 0.936510 -0.250907 
0.402551 0.141126 -0.918746 
0.135812 0.314502 -0.941512 
0.655665 0.710415 -0.338443 
0.133314 0.611558 -0.769344 
0.188947 0.740875 -0.629998 
0.322002 0.617802 -0.720824 
0.889036 0.503014 -0.174500 
0.632435 0.400050 -0.695967 
0.400839 0.761318 -0.519202 
0.791795 0.566830 -0.341512 
0.148894 0.967359 -0.105501 
0.314360 0.936710 -0.135922 
0.739442 0.701867 -0.149097 
0.970583 0.165800 -0.292236 
0.491341 0.308015 -0.833864 
0.885164 0.426040 -0.322537 
0.900431 0.186606 -0.458186 
0.968272 0.311845 -0.181776 
0.923633 0.300755 -0.348029 
1.006252 0.149152 -0.136607 
0.751496 0.394950 -0.578868 
0.476914 0.470480 0.767979 
0.477522 0.810160 0.390025 
0.858104 0.430828 0.377316 
0.341668 0.323270 0.898181 
0.327513 0.901748 0.302279 
0.932554 0.357853 0.258031 
0.985067 0.190602 0.210171 
0.574729 0.643348 0.552164 
0.118096 0.482420 0.879371 
0.767521 0.185599 0.641664 
0.449574 0.173463 0.889032 
0.455086 0.885248 0.188378 
0.895430 0.491692 0.170292 
0.265240 0.151020 0.961812 
0.277844 0.947816 0.147488 
0.966452 0.342887 0.123905 
0.623916 0.176412 0.779172 
0.527805 0.305051 0.813552 
0.334986 0.633367 0.718277 
0.806945 0.636530 0.116838 
0.699006 0.735542 0.174079 
0.609251 0.508293 0.647779 
0.210332 0.751534 0.636135 
0.788607 0.594242 0.303100 
0.656716 0.697549 0.373239 
0.410636 0.724771 0.582907 
0.579891 0.810794 0.227885 
0.132824 0.969572 0.129185 
0.112979 0.130214 0.993525 
0.485213 0.604295 0.664047 
0.164200 0.613282 0.784115 
0.727591 0.523030 0.505752 
0.660120 0.366134 0.688991 
0.163787 0.314539 0.946669 
0.187635 0.937801 0.274213 
0.805450 0.338414 0.537890 
0.856009 0.161436 0.527070 
0.236847 0.859842 0.459850 
0.907899 0.253918 0.402333 
0.268280 0.481923 0.850077 
0.490530 -0.749961 0.331255 
0.320224 -0.352300 0.863771 
0.305043 -0.837931 0.348870 
0.136931 -0.447375 0.868782 
0.511909 -0.139427 0.843275 
0.403927 -0.846559 0.178457 
0.592735 -0.515323 0.567521 
0.262218 -0.160121 0.949395 
0.204784 -0.923041 0.170599 
0.909553 -0.344827 0.156936 
0.761593 -0.371521 0.490748 
0.722242 -0.624178 0.133215 
0.871233 -0.163327 0.455329 
0.960986 -0.155750 0.230678 
0.499787 -0.299666 0.795410 
0.548386 -0.641387 0.459618 
0.590988 -0.736156 0.153788 
0.691482 -0.601912 0.294984 
[...]
POINT_DATA 1108
SCALARS u float 1
LOOKUP_TABLE default
0.028844
0.028399
0.033093
0.033209
0.009855
0.009482
0.022338
0.022413
0.026982
0.027354
0.007963
0.007538
0.032756
0.036032
0.036487
0.033896
0.029440
0.026633
0.027768
0.038447
0.042815
0.043373
0.039904
0.034425
0.028754
0.026329
0.032343
0.035764
0.035835
0.033392
0.029344
0.026656
0.028002
0.038695
0.042795
0.043524
0.040078
0.034471
0.029053
0.026619
0.012791
0.017154
0.022740
0.027828
0.032138
0.034495
0.034607
0.029959
0.025659
0.020713
0.016324
0.012821
0.010018
0.008816
0.012232
0.016967
0.022533
0.027482
0.031809
0.034195
0.034442
0.029829
0.025559
0.021110
0.016466
0.013020
0.010418
0.009071
0.027937
0.026426
0.024082
0.021417
0.018443
0.014710
0.011305
0.010497
0.013894
0.017521
0.020715
0.024013
0.026455
0.027907
0.027709
0.026425
0.023983
0.021385
0.018161
0.014133
0.010973
0.010503
0.013404
0.017273
0.020981
0.024358
0.026807
0.028302
0.028256
0.033020
0.035426
0.034353
0.030739
0.025625
0.020229
0.017657
0.020791
0.033733
0.038997
0.042097
0.040708
0.036224
0.030977
0.024364
0.018737
0.018217
0.027768
0.032506
0.035061
0.033719
0.030727
0.025828
0.020419
0.017658
0.020845
0.033731
0.039062
0.042177
0.040811
0.036488
0.031256
0.024636
0.018890
0.018169
0.024519
0.020953
0.017171
0.013892
0.011078
0.009340
0.008927
0.008796
0.008237
0.008447
0.009880
0.013683
0.017764
0.021789
0.025819
0.028463
0.029222
0.028988
0.024497
0.021033
0.017756
0.014405
0.011220
0.009159
0.008952
0.009077
0.008689
0.008151
0.010061
0.013645
0.017836
0.021943
0.026037
0.028722
0.029381
0.029070
0.022734
0.022678
0.021551
0.020215
0.017942
0.015984
0.014342
0.010945
0.008895
0.008275
0.009814
0.011344
0.012647
0.014903
0.016979
0.018508
0.020087
0.021333
0.022896
0.022906
0.021961
0.020431
0.018121
0.015932
0.013898
0.010852
0.008399
0.007705
0.009862
0.011168
0.013053
0.014831
0.016890
0.018455
0.020038
0.021231
0.023800
0.029578
0.012321
0.024058
0.032678
0.018241
0.024561
0.030639
0.014868
0.016463
0.023062
0.026174
0.025645
0.021279
0.031192
0.039110
0.038715
0.017079
0.021010
0.033372
0.026591
0.034394
0.031805
0.026405
0.023595
0.037625
0.014776
0.021455
0.027454
0.014149
0.019321
0.011041
0.009023
0.015720
0.020181
0.034852
0.019501
0.010687
0.009473
0.024462
0.027214
0.031931
0.020213
0.026495
0.015687
0.012017
0.026863
0.029522
0.028057
0.021230
0.028004
0.018524
0.027590
0.029964
0.015183
0.014976
0.030326
0.022704
0.025462
0.021487
0.036417
0.025138
0.024764
0.033464
0.030148
0.027142
0.033577
0.030857
0.019588
0.034348
0.029788
0.034705
0.032979
0.031497
0.029145
0.021039
0.026131
0.032824
0.015658
0.024546
0.033430
0.031128
0.026881
0.013387
0.024451
0.016328
0.026519
0.035869
0.012231
0.025872
0.034671
0.020508
0.019574
0.019458
0.035231
0.032579
0.025961
0.018744
0.033549
0.030738
0.022945
0.029191
0.028395
0.010097
0.023335
0.015781
0.030058
0.024726
0.011861
0.025313
0.028791
0.026291
0.022126
0.029619
0.015768
0.044987
0.022733
0.043600
0.022378
0.019147
0.045363
0.035830
0.015340
0.041943
0.030100
0.031284
0.039866
0.025881
0.026929
0.024179
0.041123
0.044386
0.040322
0.011783
0.016351
0.036428
0.039182
0.041451
0.034731
0.038053
0.024132
0.041116
0.031494
0.037003
0.034048
0.028629
0.036609
0.029489
0.028785
0.021598
0.018691
0.029363
0.037548
0.024610
0.027216
0.031111
0.020226
0.026543
0.016100
0.012310
0.026686
0.029390
0.028048
0.021387
0.028225
0.018545
0.027240
0.030050
0.015501
0.014958
0.029990
0.022860
0.025693
0.021782
0.035902
0.025134
0.025024
0.033560
0.030338
0.027183
0.032992
0.030384
0.019724
0.033941
0.029194
0.034112
0.032254
0.031153
0.028836
0.020853
0.026176
0.032781
0.015123
0.024216
0.033449
0.030956
0.026663
0.013024
0.024566
0.015824
0.026436
0.035205
0.011946
0.026016
0.034435
0.020627
0.019527
0.019517
0.034762
0.031974
0.025646
0.018852
0.033670
0.030553
0.022878
0.029108
0.028480
0.009662
0.023307
0.015624
0.029677
0.024622
0.011519
0.025136
0.028713
0.026388
0.022032
0.029973
0.015868
0.044625
0.022403
0.043163
0.021772
0.018995
0.045080
0.035452
0.014786
0.041694
0.029830
0.031022
0.039639
0.025693
0.026707
0.023911
0.040731
0.044179
0.039918
0.011245
0.015960
0.035998
0.038764
0.041096
0.034504
0.037574
0.023915
0.040660
0.030948
0.036673
0.033758
0.028339
0.036221
0.029206
0.028400
0.021538
0.018365
0.029097
0.037370
0.023707
0.029980
0.012531
0.023869
0.033142
0.018200
0.024711
0.030459
0.015104
0.016495
0.022762
0.026717
0.025367
0.021135
0.031083
0.039075
0.038113
0.017233
0.020843
0.032996
0.026225
0.034380
0.031732
0.026091
0.023542
0.037548
0.014869
0.021822
0.027397
0.014347
0.019619
0.011327
0.009194
0.016062
0.020242
0.034561
0.019833
0.010852
0.009623
0.037281
0.029176
0.018217
0.021340
0.041722
0.018271
0.039256
0.013161
0.017704
0.037313
0.008652
0.018537
0.031530
0.025350
0.016474
0.033483
0.012621
0.019488
0.042366
0.032227
0.029967
0.043929
0.017110
0.034942
0.016192
0.034398
0.021600
0.041936
0.018117
0.034629
0.023092
0.023883
0.029578
0.034298
0.028319
0.041474
0.025505
0.015139
0.027915
0.017757
0.022349
0.014227
0.024283
0.020259
0.037255
0.019543
0.039297
0.037326
0.040156
0.026418
0.043550
0.030920
0.038898
0.032374
0.018903
0.036239
0.025040
0.015511
0.035544
0.011149
0.010933
0.009856
0.026764
0.019988
0.013130
0.017626
0.032632
0.019191
0.031256
0.011542
0.019855
0.030431
0.009227
0.024213
0.015870
0.013664
0.020435
0.025741
0.016975
0.012857
0.031883
0.022515
0.022593
0.034156
0.022941
0.027421
0.010929
0.023460
0.017953
0.034062
0.024039
0.026945
0.017095
0.015509
0.021607
0.024296
0.018698
0.030823
0.017409
0.020029
0.022092
0.012510
0.020163
0.016651
0.019887
0.016431
0.028442
0.017864
0.030487
0.027955
0.032391
0.019255
0.034349
0.020275
0.027905
0.026311
0.024004
0.016680
0.026621
0.015429
0.028407
0.013661
0.009592
0.011122
0.023903
0.023719
0.017211
0.013699
0.028872
0.011890
0.029291
0.016305
0.009589
0.024590
0.019266
0.030980
0.014506
0.014574
0.034596
0.011783
0.023063
0.014037
0.025845
0.019564
0.014727
0.021684
0.033230
0.011055
0.015257
0.025114
0.011986
0.024134
0.029326
0.009636
0.021305
0.018660
0.026759
0.027447
0.021943
0.029993
0.017628
0.032584
0.011027
0.016306
0.026143
0.012904
0.028784
0.015360
0.032537
0.014557
0.031996
0.021165
0.016733
0.015387
0.026377
0.028045
0.021579
0.025565
0.008221
0.018631
0.030574
0.020170
0.017954
0.018381
0.018183
0.017239
0.012553
0.021368
0.030505
0.008921
0.015901
0.008445
0.016472
0.009610
0.019022
0.012748
0.029630
0.018464
0.034084
0.008770
0.025515
0.019179
0.038284
0.013518
0.010574
0.012616
0.016256
0.008173
0.018631
0.037260
0.016417
0.010668
0.017780
0.008539
0.017271
0.026461
0.025667
0.035481
0.018899
0.027765
0.021461
0.016057
0.016736
0.008640
0.009909
0.031989
0.023612
0.033069
0.014024
0.036437
0.009588
0.023076
0.007520
0.018448
0.012536
0.015804
0.010039
0.014954
0.011830
0.016765
0.019517
0.008608
0.022364
0.012291
0.032679
0.015100
0.029902
0.029337
0.028367
0.022023
0.014362
0.031116
0.017364
0.029233
0.016325
0.029124
0.017887
0.015012
0.021799
0.018320
0.014243
0.013792
0.022092
0.011037
0.014633
0.024882
0.031878
0.034087
0.023623
0.016235
0.024192
0.012652
0.025588
0.032997
0.017878
0.019206
0.024659
0.018258
0.011091
0.009436
0.021403
0.018068
0.021836
0.024699
0.020194
0.030092
0.012169
0.018060
0.017081
0.014129
0.016416
0.011248
0.025710
0.016282
0.028077
0.016219
0.029342
0.032083
0.033144
0.020589
0.023811
0.027841
0.021614
0.025330
0.026128
0.019618
0.011232
0.028852
0.009219
0.007615
0.012612
0.021225
0.027955
0.008943
0.016009
0.008447
0.016595
0.031590
0.009465
0.019131
0.030945
0.012527
0.029767
0.018130
0.008726
0.025714
0.018395
0.038648
0.013624
0.010607
0.012536
0.016377
0.008148
0.018874
0.024497
0.016318
0.010467
0.017918
0.008369
0.017342
0.026532
0.018495
0.026683
0.021131
0.015762
0.016783
0.008554
0.009939
0.032634
0.022671
0.032948
0.013860
0.036349
0.009396
0.023083
0.007514
0.018588
0.012628
0.015956
0.009975
0.015051
0.011696
0.016716
0.019520
0.008179
0.011960
0.022118
0.033967
0.015201
0.024719
0.037736
0.035877
0.037654
0.029552
0.016704
0.021588
0.042069
0.018481
0.039519
0.017804
0.037449
0.018512
0.031852
0.016577
0.025651
0.016644
0.033851
0.012841
0.019080
0.042673
0.032594
0.030225
0.044160
0.017215
0.035264
0.011870
0.034760
0.021860
0.042150
0.018156
0.034787
0.023359
0.014160
0.009387
0.022941
0.029831
0.034694
0.028348
0.041820
0.025803
0.015309
0.028202
0.016968
0.021927
0.014276
0.024567
0.020427
0.037618
0.019782
0.039692
0.037718
0.040370
0.026708
0.043854
0.031207
0.039233
0.032514
0.018937
0.024961
0.036545
0.011051
0.035838
0.008922
0.007958
0.016039
0.026579
0.030576
0.018005
0.012127
0.019199
0.011543
0.031178
0.024286
0.009061
0.028238
0.028357
0.022061
0.025858
0.022609
0.017496
0.033751
0.024922
0.013890
0.016311
0.021014
0.012674
0.017908
0.013456
0.027949
0.021121
0.022717
0.010408
0.019945
0.010335
0.030357
0.028681
0.026324
0.023817
0.024302
0.015936
0.017909
0.028434
0.019383
0.031772
0.028473
0.032099
0.022265
0.022105
0.019008
0.018324
0.015144
0.016255
0.016310
0.018182
0.012211
0.019783
0.018780
0.008663
0.024166
0.021416
0.023322
0.033507
0.020220
0.034234
0.026090
0.031969
0.009797
0.021951
0.030366
0.018166
0.022774
0.009057
0.011704
0.031065
0.012878
0.008285
0.023428
0.030609
0.023723
0.024060
0.028690
0.029977
0.022153
0.027050
0.017840
0.015218
0.041071
0.034194
0.033071
0.030526
0.030409
0.032597
0.030148
0.031200
0.031526
0.026834
0.011553
0.017192
0.024383
0.039217
0.045862
0.027133
0.032387
0.039545
0.032105
0.030350
0.025133
0.019485
0.018715
0.036699
0.027217
0.019680
0.029780
0.030132
0.012158
0.031597
0.030980
0.022841
0.028462
0.009042
0.012693
0.022731
0.017618
0.038045
0.032804
0.028554
0.032576
0.013681
0.013056
0.010191
0.023127
0.035873
0.010783
0.016602
0.029433
0.033066
0.031993
0.029754
0.011150
0.018934
0.026766
0.014487
0.011993
0.026713
0.027863
0.016582
0.021577
0.026945
0.030753
0.028479
0.033752
0.035248
0.043786
0.037998
0.040211
0.024445
0.034472
0.042031
0.029283
0.019037
0.023377
0.016100
0.010750
0.012319
0.035329
0.017162
0.029519
0.011648
