# vtk DataFile Version 2.0
Unstructured Grid Example
ASCII
DATASET UNSTRUCTURED_GRID
POINTS 1108 float
0.998677 0.000554 0.000297 
-0.998702 -0.000552 -0.000304 
0.000556 1.002569 0.001391 
-0.000573 -1.002559 -0.001378 
0.000312 0.001395 0.998755 
-0.000300 -0.001369 -0.998778 
1.198762 0.000371 0.000198 
-1.198778 -0.000366 -0.000181 
0.000371 1.202433 0.000921 
-0.000368 -1.202429 -0.000934 
0.000211 0.000917 1.198824 
-0.000216 -0.000933 -1.198845 
0.979756 0.195903 0.000566 
0.923246 0.383843 0.000819 
0.831258 0.557136 0.001022 
0.707271 0.709068 0.001184 
0.555981 0.833814 0.001345 
0.383227 0.926474 0.001402 
0.195653 0.983463 0.001423 
-0.194512 0.983018 0.001320 
-0.382017 0.925683 0.001175 
-0.554747 0.832730 0.000969 
-0.706064 0.707847 0.000746 
-0.830191 0.555903 0.000518 
-0.922468 0.382653 0.000273 
-0.979362 0.194806 -0.000021 
-0.979770 -0.195890 -0.000559 
-0.923226 -0.383828 -0.000815 
-0.831246 -0.557142 -0.001020 
-0.707269 -0.709094 -0.001169 
-0.555983 -0.833844 -0.001316 
-0.383230 -0.926508 -0.001385 
-0.195674 -0.983460 -0.001413 
0.194500 -0.983008 -0.001300 
0.382006 -0.925652 -0.001171 
0.554732 -0.832697 -0.000975 
0.706054 -0.707836 -0.000757 
0.830199 -0.555899 -0.000513 
0.922470 -0.382652 -0.000291 
0.979361 -0.194801 0.000011 
0.000209 -0.193904 0.979084 
0.000070 -0.381749 0.921885 
-0.000069 -0.555004 0.829411 
-0.000189 -0.706975 0.705191 
-0.000299 -0.831935 0.553857 
-0.000430 -0.925099 0.381151 
-0.000498 -0.982702 0.193674 
-0.000620 -0.983774 -0.196505 
-0.000643 -0.927070 -0.384101 
-0.000637 -0.834567 -0.556850 
-0.000609 -0.709903 -0.708132 
-0.000565 -0.557985 -0.832079 
-0.000493 -0.384696 -0.923898 
-0.000408 -0.196733 -0.980147 
-0.000196 0.193902 -0.979093 
-0.000076 0.381711 -0.921918 
0.000046 0.554951 -0.829401 
0.000170 0.706945 -0.705164 
0.000300 0.831906 -0.553839 
0.000416 0.925070 -0.381140 
0.000476 0.982688 -0.193660 
0.000615 0.983819 0.196522 
0.000625 0.927138 0.384122 
0.000631 0.834606 0.556881 
0.000609 0.709929 0.708141 
0.000556 0.558012 0.832094 
0.000504 0.384720 0.923901 
0.000412 0.196758 0.980146 
0.979606 0.000815 0.195171 
0.922887 0.001060 0.382529 
0.830667 0.001254 0.555200 
0.706507 0.001375 0.706552 
0.555186 0.001434 0.830712 
0.382522 0.001490 0.922934 
0.195161 0.001488 0.979699 
-0.194533 0.001256 0.979441 
-0.381872 0.001049 0.922513 
-0.554493 0.000850 0.830116 
-0.705828 0.000613 0.705864 
-0.830053 0.000320 0.554515 
-0.922452 0.000006 0.381843 
-0.979407 -0.000274 0.194515 
-0.979622 -0.000805 -0.195170 
-0.922897 -0.001042 -0.382521 
-0.830679 -0.001239 -0.555202 
-0.706514 -0.001370 -0.706548 
-0.555158 -0.001451 -0.830736 
-0.382533 -0.001501 -0.922969 
-0.195160 -0.001454 -0.979704 
0.194555 -0.001243 -0.979477 
0.381882 -0.001055 -0.922527 
0.554508 -0.000850 -0.830149 
0.705860 -0.000602 -0.705899 
0.830082 -0.000343 -0.554542 
0.922462 -0.000034 -0.381886 
0.979402 0.000278 -0.194542 
1.184200 0.188192 0.000369 
1.140603 0.371449 0.000465 
1.068966 0.545667 0.000589 
0.970950 0.706550 0.000699 
0.848934 0.850142 0.000778 
0.705944 0.972800 0.000895 
0.545457 1.071557 0.000924 
0.371426 1.143792 0.000932 
0.188215 1.187802 0.000940 
-0.187447 1.187423 0.000871 
-0.370554 1.143080 0.000820 
-0.544455 1.070568 0.000747 
-0.704798 0.971702 0.000645 
-0.847775 0.849005 0.000516 
-0.969826 0.705460 0.000385 
-1.067972 0.544689 0.000213 
-1.139925 0.370588 0.000104 
-1.183855 0.187411 -0.000056 
-1.184218 -0.188215 -0.000352 
-1.140601 -0.371450 -0.000487 
-1.068942 -0.545662 -0.000597 
-0.970951 -0.706556 -0.000694 
-0.848951 -0.850168 -0.000813 
-0.705957 -0.972820 -0.000899 
-0.545467 -1.071584 -0.000911 
-0.371443 -1.143839 -0.000932 
-0.188222 -1.187813 -0.000937 
0.187443 -1.187392 -0.000874 
0.370550 -1.143054 -0.000812 
0.544436 -1.070540 -0.000737 
0.704782 -0.971689 -0.000628 
0.847770 -0.848992 -0.000513 
0.969827 -0.705450 -0.000385 
1.067978 -0.544686 -0.000215 
1.139926 -0.370581 -0.000111 
1.183850 -0.187398 0.000053 
-0.000400 -1.188078 -0.188781 
-0.000430 -1.144346 -0.372078 
-0.000423 -1.072274 -0.546208 
-0.000407 -0.973587 -0.706748 
-0.000411 -0.850922 -0.849753 
-0.000376 -0.707361 -0.971768 
-0.000349 -0.546408 -1.069717 
-0.000310 -0.372093 -1.141205 
-0.000258 -0.188761 -1.184567 
-0.000124 0.186870 -1.183633 
-0.000084 0.369953 -1.139399 
0.000007 0.543954 -1.067230 
0.000041 0.704627 -0.968987 
0.000149 0.848138 -0.846934 
0.000190 0.970856 -0.704011 
0.000244 1.069795 -0.543733 
0.000277 1.142498 -0.369939 
0.000342 1.187128 -0.186887 
0.000400 1.188107 0.188779 
0.000412 1.144375 0.372087 
0.000464 1.072259 0.546228 
0.000414 0.973621 0.706780 
0.000409 0.850952 0.849768 
0.000400 0.707384 0.971762 
0.000343 0.546420 1.069723 
0.000313 0.372099 1.141211 
0.000261 0.188757 1.184565 
0.000128 -0.186878 1.183600 
0.000069 -0.369967 1.139379 
0.000008 -0.543949 1.067256 
-0.000037 -0.704634 0.969042 
-0.000158 -0.848159 0.846966 
-0.000188 -0.970891 0.704019 
-0.000245 -1.069826 0.543741 
-0.000279 -1.142524 0.369939 
-0.000345 -1.187139 0.186882 
-1.183899 -0.000190 0.187321 
-1.139878 -0.000061 0.370205 
-1.067789 0.000094 0.543935 
-0.969506 0.000213 0.704272 
-0.847329 0.000366 0.847346 
-0.704301 0.000562 0.969535 
-0.543952 0.000649 1.067867 
-0.370196 0.000769 1.139923 
-0.187314 0.000845 1.183971 
0.187740 0.000952 1.184153 
0.370686 0.000996 1.140328 
0.544503 0.000994 1.068381 
0.704934 0.000997 0.970130 
0.847984 0.000898 0.847971 
0.970127 0.000799 0.704914 
1.068338 0.000758 0.544502 
1.140269 0.000645 0.370656 
1.184116 0.000548 0.187739 
1.183887 0.000215 -0.187315 
1.139886 0.000070 -0.370195 
1.067811 -0.000094 -0.543950 
0.969532 -0.000219 -0.704297 
0.847362 -0.000385 -0.847378 
0.704318 -0.000596 -0.969567 
0.543966 -0.000657 -1.067893 
0.370222 -0.000764 -1.139960 
0.187304 -0.000849 -1.183992 
-0.187740 -0.000980 -1.184175 
-0.370667 -0.000981 -1.140363 
-0.544516 -0.000992 -1.068407 
-0.704957 -0.000944 -0.970122 
-0.847989 -0.000913 -0.847973 
-0.970132 -0.000811 -0.704929 
-1.068345 -0.000759 -0.544509 
-1.140278 -0.000640 -0.370657 
-1.184130 -0.000544 -0.187734 
0.817578 -0.397404 -0.414648 
0.416632 -0.795709 -0.443858 
0.393393 -0.379035 -0.837685 
0.891607 -0.298854 -0.336556 
0.295928 -0.897006 -0.335871 
0.681031 -0.336948 -0.649019 
0.557021 -0.631996 -0.540222 
0.868743 -0.481158 -0.108844 
0.180209 -0.621959 -0.764469 
0.611889 -0.172456 -0.770376 
0.872330 -0.156736 -0.459889 
0.206255 -0.855054 -0.481709 
0.952503 -0.138451 -0.265582 
0.802643 -0.293511 -0.517158 
0.682677 -0.645058 -0.344091 
0.463643 -0.864303 -0.202771 
0.628302 -0.758598 -0.175679 
0.526049 -0.478777 -0.703224 
0.796048 -0.142912 -0.585613 
0.556891 -0.755053 -0.349265 
0.984484 -0.122597 -0.113255 
0.771002 -0.617786 -0.152532 
0.152245 -0.951326 -0.278945 
0.936996 -0.306740 -0.159057 
0.735223 -0.470837 -0.486810 
0.268317 -0.953443 -0.153580 
0.548988 -0.301907 -0.778645 
0.333471 -0.707252 -0.626354 
0.833111 -0.469383 -0.290058 
0.497480 -0.182586 -0.846856 
0.147197 -0.760685 -0.636405 
0.194627 -0.482682 -0.855113 
0.176496 -0.319757 -0.931060 
0.350832 -0.558288 -0.753254 
0.637552 -0.482596 -0.600422 
0.124027 -0.986925 -0.126668 
0.447620 -0.603477 -0.661429 
0.328697 -0.217196 -0.918453 
0.204474 -0.134209 -0.968749 
0.501510 0.583295 -0.636851 
0.504793 0.785955 -0.358119 
0.807563 0.373072 -0.453928 
0.400087 0.468449 -0.785214 
0.351132 0.887794 -0.301019 
0.290556 0.312391 -0.902034 
0.169807 0.162511 -0.970024 
0.760428 0.216250 -0.609378 
0.672091 0.538301 -0.506398 
0.503349 0.849115 -0.169479 
0.600911 0.175742 -0.777192 
0.184124 0.879105 -0.440172 
0.168806 0.474338 -0.861503 
0.556075 0.684883 -0.469942 
0.152440 0.956320 -0.255000 
0.389374 0.138527 -0.908477 
0.123461 0.321840 -0.936400 
0.626043 0.704486 -0.334837 
0.115422 0.625078 -0.769644 
0.168323 0.755581 -0.631473 
0.301496 0.624894 -0.717970 
0.856288 0.487344 -0.170180 
0.608463 0.393660 -0.686416 
0.376615 0.767526 -0.517947 
0.760580 0.555063 -0.335530 
0.126253 0.988113 -0.109799 
0.289992 0.949056 -0.138772 
0.707754 0.692184 -0.147336 
0.945669 0.147339 -0.284914 
0.472687 0.304996 -0.824185 
0.854297 0.410996 -0.315510 
0.875415 0.170754 -0.448603 
0.938592 0.293548 -0.176320 
0.894977 0.284355 -0.340079 
0.981637 0.129094 -0.131280 
0.724491 0.384721 -0.569158 
0.461542 0.462312 0.759363 
0.453581 0.808243 0.384267 
0.831622 0.413780 0.372758 
0.333077 0.316006 0.889186 
0.304760 0.908694 0.297595 
0.905428 0.339358 0.255962 
0.962145 0.169698 0.210431 
0.552130 0.635210 0.544748 
0.109168 0.483279 0.870465 
0.752404 0.168274 0.636721 
0.442654 0.162056 0.881823 
0.429829 0.887475 0.184224 
0.864784 0.474500 0.168682 
0.261937 0.143410 0.954049 
0.254757 0.959677 0.143637 
0.937913 0.323531 0.124088 
0.613134 0.161458 0.773240 
0.515911 0.293840 0.805516 
0.318879 0.631789 0.710264 
0.775495 0.623008 0.115190 
0.669381 0.725994 0.170942 
0.589131 0.497199 0.639795 
0.193969 0.756533 0.629767 
0.759903 0.580116 0.298894 
0.629857 0.687911 0.367587 
0.390580 0.722727 0.575646 
0.552780 0.806320 0.223558 
0.111087 0.989120 0.125064 
0.112646 0.125165 0.985166 
0.466354 0.597601 0.655979 
0.151592 0.615775 0.776364 
0.703454 0.509272 0.499130 
0.642750 0.352368 0.681660 
0.158199 0.311526 0.937574 
0.166309 0.952170 0.269982 
0.784052 0.321811 0.531935 
0.839567 0.142157 0.523751 
0.217151 0.868172 0.454408 
0.886114 0.235007 0.399432 
0.257145 0.479306 0.841155 
0.510860 -0.788586 0.340597 
0.329065 -0.371719 0.865723 
0.326618 -0.874712 0.357885 
0.149268 -0.464712 0.870345 
0.512784 -0.157288 0.842219 
0.425800 -0.885877 0.186524 
0.605794 -0.546399 0.575355 
0.266510 -0.173438 0.946334 
0.227088 -0.958734 0.177888 
0.911572 -0.373912 0.162275 
0.768041 -0.400444 0.496377 
0.736786 -0.660306 0.140267 
0.867387 -0.188003 0.457630 
0.953680 -0.181087 0.234172 
0.506146 -0.321400 0.798002 
0.565447 -0.676662 0.468846 
0.609934 -0.775470 0.161679 
0.706665 -0.637703 0.302898 
[...]
POINT_DATA 1108
SCALARS u float 1
LOOKUP_TABLE default
0.001465
0.001443
0.002974
0.002962
0.001896
0.001859
0.001307
0.001289
0.002628
0.002628
0.001506
0.001501
0.001428
0.001555
0.001881
0.002297
0.002734
0.002999
0.003084
0.002658
0.002253
0.001791
0.001480
0.001419
0.001438
0.001452
0.001408
0.001550
0.001887
0.002311
0.002746
0.003021
0.003080
0.002642
0.002230
0.001777
0.001488
0.001409
0.001440
0.001454
0.002084
0.002204
0.002136
0.001929
0.001801
0.002005
0.002435
0.003364
0.003550
0.003411
0.003040
0.002554
0.002072
0.001809
0.002077
0.002190
0.002160
0.001956
0.001810
0.001993
0.002427
0.003411
0.003617
0.003457
0.003067
0.002581
0.002098
0.001833
0.001436
0.001460
0.001534
0.001600
0.001667
0.001772
0.001843
0.001922
0.001904
0.001928
0.001885
0.001795
0.001657
0.001519
0.001417
0.001442
0.001515
0.001593
0.001677
0.001762
0.001813
0.001883
0.001894
0.001896
0.001837
0.001761
0.001627
0.001514
0.001188
0.001027
0.001085
0.001402
0.001837
0.002254
0.002612
0.002758
0.002786
0.002379
0.002007
0.001587
0.001220
0.001030
0.001073
0.001258
0.001366
0.001406
0.001176
0.001038
0.001091
0.001404
0.001879
0.002277
0.002634
0.002805
0.002797
0.002352
0.001981
0.001562
0.001209
0.001026
0.001070
0.001253
0.001367
0.001414
0.003068
0.003352
0.003405
0.003130
0.002720
0.002261
0.001734
0.001311
0.001257
0.001810
0.002062
0.002147
0.001969
0.001648
0.001346
0.001233
0.001539
0.002105
0.003095
0.003381
0.003405
0.003175
0.002753
0.002284
0.001745
0.001318
0.001256
0.001836
0.002074
0.002125
0.001915
0.001613
0.001338
0.001241
0.001560
0.002118
0.001399
0.001521
0.001659
0.001708
0.001723
0.001747
0.001709
0.001670
0.001566
0.001435
0.001376
0.001324
0.001280
0.001189
0.001141
0.001189
0.001200
0.001238
0.001416
0.001518
0.001632
0.001673
0.001683
0.001725
0.001684
0.001628
0.001555
0.001438
0.001343
0.001303
0.001236
0.001196
0.001141
0.001182
0.001190
0.001223
0.001433
0.002486
0.001776
0.001463
0.002872
0.001575
0.001897
0.001398
0.002535
0.001712
0.001609
0.003117
0.001535
0.001537
0.001643
0.002283
0.001749
0.001750
0.001684
0.002030
0.001476
0.001432
0.003216
0.001429
0.001480
0.002773
0.001650
0.002506
0.001433
0.001732
0.003001
0.002152
0.001871
0.002101
0.001621
0.003043
0.002039
0.001748
0.001795
0.001876
0.001930
0.001705
0.002093
0.002189
0.002170
0.002083
0.001865
0.001731
0.002407
0.002017
0.001929
0.002202
0.001756
0.002349
0.002045
0.002186
0.001827
0.002077
0.001863
0.001979
0.001637
0.001960
0.001830
0.001651
0.002748
0.002674
0.002031
0.001564
0.002143
0.001584
0.001707
0.001527
0.001592
0.001500
0.001836
0.002455
0.003443
0.001904
0.002030
0.003622
0.001619
0.001417
0.002914
0.002435
0.001626
0.001786
0.003327
0.001845
0.001811
0.003405
0.001501
0.001709
0.001975
0.003018
0.002214
0.002682
0.002467
0.003438
0.002351
0.002898
0.003306
0.003119
0.003352
0.001802
0.002876
0.002909
0.002366
0.002033
0.002000
0.003626
0.001824
0.001533
0.003685
0.001566
0.002481
0.001625
0.002059
0.001761
0.002143
0.001809
0.001835
0.001800
0.001958
0.002204
0.001499
0.001700
0.001442
0.001571
0.001488
0.001924
0.001708
0.001548
0.001544
0.001979
0.002114
0.001790
0.001865
0.001720
0.001481
0.001823
0.001698
0.001744
0.001950
0.001693
0.001544
0.001856
0.001856
0.002004
0.002041
0.001769
0.001910
0.001585
0.002579
0.001908
0.001954
0.001709
0.002091
0.002211
0.002219
0.002057
0.001905
0.001756
0.002429
0.002056
0.001935
0.002196
0.001796
0.002372
0.002067
0.002197
0.001850
0.002050
0.001861
0.001976
0.001639
0.001976
0.001838
0.001668
0.002757
0.002697
0.002041
0.001581
0.002136
0.001592
0.001705
0.001504
0.001606
0.001475
0.001856
0.002427
0.003431
0.001902
0.002027
0.003643
0.001620
0.001404
0.002916
0.002390
0.001604
0.001782
0.003342
0.001844
0.001785
0.003431
0.001492
0.001684
0.001957
0.002995
0.002233
0.002676
0.002454
0.003387
0.002358
0.002881
0.003304
0.003124
0.003338
0.001776
0.002856
0.002888
0.002365
0.002031
0.001977
0.003600
0.001811
0.001506
0.003669
0.001551
0.002470
0.001622
0.002049
0.001769
0.002172
0.001803
0.001848
0.001782
0.001930
0.002212
0.001488
0.001682
0.001432
0.001559
0.001471
0.001919
0.001690
0.001546
0.001534
0.001949
0.002094
0.001806
0.001867
0.001725
0.001473
0.001816
0.001687
0.001751
0.001933
0.001672
0.001539
0.001835
0.001875
0.002054
0.002054
0.001757
0.001895
0.001573
0.002591
0.001452
0.002504
0.001793
0.001462
0.002929
0.001597
0.001916
0.001409
0.002570
0.001740
0.001639
0.003119
0.001548
0.001565
0.001658
0.002299
0.001757
0.001764
0.001717
0.002049
0.001476
0.001441
0.003253
0.001445
0.001495
0.002802
0.001666
0.002533
0.001429
0.001752
0.003044
0.002181
0.001898
0.002129
0.001634
0.003071
0.002060
0.001770
0.001823
0.001356
0.001794
0.001926
0.001455
0.001229
0.001447
0.001471
0.001877
0.001436
0.001907
0.001754
0.001596
0.001619
0.001935
0.001410
0.001247
0.001536
0.002072
0.001133
0.001392
0.001238
0.001153
0.001372
0.001292
0.002030
0.001613
0.001377
0.001482
0.001323
0.001779
0.001902
0.001775
0.001832
0.001674
0.001729
0.001191
0.001553
0.001355
0.001505
0.001736
0.001995
0.001448
0.001782
0.001583
0.001332
0.001511
0.001166
0.001198
0.001060
0.001428
0.001131
0.001602
0.001420
0.002164
0.001377
0.001535
0.001689
0.001816
0.001088
0.001601
0.002014
0.001579
0.001198
0.001704
0.002103
0.001698
0.001209
0.001904
0.001313
0.002069
0.002420
0.001175
0.001856
0.001847
0.001490
0.001868
0.001241
0.001695
0.001919
0.002041
0.001104
0.001367
0.001947
0.001075
0.001486
0.001521
0.002141
0.001380
0.002230
0.001035
0.001985
0.001385
0.001945
0.001694
0.001811
0.001596
0.001436
0.001336
0.001265
0.001449
0.001796
0.001999
0.001960
0.001746
0.001874
0.001247
0.001657
0.001382
0.001457
0.001382
0.001394
0.001702
0.001106
0.001223
0.001353
0.001288
0.002403
0.001353
0.001607
0.002071
0.001775
0.001900
0.002089
0.001813
0.001640
0.002786
0.003477
0.001389
0.001069
0.001258
0.000997
0.003437
0.001244
0.001114
0.003254
0.002282
0.002832
0.003308
0.001492
0.002190
0.002791
0.003464
0.001293
0.001405
0.001175
0.001035
0.001048
0.001496
0.003585
0.002252
0.001200
0.001038
0.001056
0.001230
0.003174
0.003063
0.002744
0.002412
0.002618
0.001503
0.001830
0.001863
0.002683
0.003455
0.002862
0.003135
0.002362
0.002301
0.001751
0.001725
0.001245
0.001168
0.001107
0.001293
0.001081
0.001888
0.002105
0.001171
0.001296
0.002488
0.002127
0.003263
0.001083
0.003073
0.003483
0.003082
0.001108
0.001546
0.002440
0.001181
0.001372
0.001239
0.001384
0.001394
0.001466
0.002180
0.001025
0.002587
0.001454
0.001824
0.001051
0.003090
0.001585
0.001253
0.001170
0.001454
0.001525
0.001313
0.001311
0.002104
0.001155
0.001401
0.001513
0.001228
0.001422
0.002008
0.003048
0.002404
0.002059
0.001394
0.001216
0.001512
0.001140
0.001265
0.002396
0.001010
0.002642
0.001855
0.002755
0.001149
0.001644
0.001000
0.001313
0.001201
0.001328
0.001530
0.001226
0.001384
0.001218
0.001076
0.001416
0.001371
0.001062
0.001617
0.002625
0.001591
0.002882
0.002768
0.002514
0.002244
0.001505
0.001104
0.003402
0.000988
0.003419
0.001047
0.003119
0.003051
0.001207
0.001228
0.002463
0.003425
0.001045
0.002102
0.001136
0.002957
0.001950
0.001449
0.002801
0.003538
0.001041
0.001179
0.002420
0.001059
0.003166
0.003327
0.001103
0.001885
0.001538
0.001261
0.001638
0.002554
0.002667
0.001992
0.003305
0.001465
0.003085
0.001092
0.001345
0.002049
0.001122
0.002687
0.001242
0.003389
0.001057
0.003497
0.002480
0.001957
0.001343
0.003192
0.002944
0.002009
0.003005
0.001153
0.001585
0.003054
0.001220
0.002314
0.001222
0.001305
0.001103
0.001538
0.002462
0.001177
0.001359
0.001230
0.001372
0.002623
0.001375
0.001463
0.002769
0.002149
0.001065
0.002556
0.001796
0.001043
0.002985
0.001564
0.001230
0.001166
0.001437
0.001492
0.001304
0.001300
0.002967
0.001156
0.001381
0.001489
0.001223
0.001417
0.001933
0.002030
0.001382
0.001215
0.001500
0.001123
0.001262
0.002362
0.001017
0.002566
0.001476
0.002709
0.001163
0.001623
0.001004
0.001304
0.001196
0.001312
0.001503
0.001219
0.001356
0.001218
0.001074
0.001424
0.001366
0.001598
0.001065
0.002069
0.001569
0.003114
0.002037
0.002329
0.001369
0.001806
0.001926
0.001468
0.001221
0.001462
0.001464
0.001450
0.001896
0.001589
0.001600
0.001707
0.001901
0.001419
0.001240
0.001555
0.002039
0.001143
0.001409
0.001242
0.001146
0.001382
0.001297
0.001665
0.001632
0.001384
0.001463
0.001335
0.001783
0.001928
0.002047
0.001607
0.001780
0.001826
0.001681
0.001745
0.001193
0.001565
0.001353
0.001498
0.001796
0.001998
0.001427
0.001771
0.001596
0.001322
0.001523
0.001165
0.001204
0.001064
0.001434
0.001128
0.001618
0.001431
0.002159
0.001395
0.001703
0.001528
0.001841
0.001095
0.001832
0.001649
0.001507
0.001408
0.001398
0.001591
0.002075
0.001935
0.002044
0.001296
0.002001
0.001968
0.001298
0.001324
0.001938
0.001729
0.001937
0.001969
0.001093
0.001721
0.001856
0.001264
0.001243
0.002032
0.002293
0.001922
0.001559
0.001449
0.001499
0.002134
0.002431
0.001856
0.001341
0.001173
0.001681
0.001650
0.001239
0.002024
0.001302
0.001786
0.001873
0.001121
0.001598
0.001401
0.001872
0.001457
0.002012
0.001705
0.002073
0.001465
0.001707
0.001314
0.002085
0.001238
0.001789
0.001774
0.002412
0.001856
0.001208
0.001147
0.001434
0.001055
0.001467
0.001145
0.002044
0.001721
0.001600
0.001510
0.001667
0.001979
0.002085
0.002521
0.001010
0.001775
0.003258
0.002411
0.001506
0.002271
0.001100
0.001243
0.001607
0.002175
0.002176
0.001376
0.002642
0.002829
0.003351
0.002720
0.001570
0.001580
0.001920
0.001523
0.001626
0.001863
0.001983
0.001955
0.002156
0.001816
0.002054
0.002013
0.001840
0.003106
0.001634
0.002709
0.001722
0.002003
0.001523
0.001956
0.003580
0.002482
0.003439
0.003301
0.002065
0.002871
0.002403
0.003256
0.002407
0.001938
0.002068
0.002155
0.002058
0.002086
0.001598
0.001998
0.001548
0.001954
0.002009
0.002366
0.001778
0.002381
0.002040
0.002125
0.003246
0.001926
0.002146
0.001686
0.002124
0.002459
0.003554
0.002906
0.002503
0.002373
0.002932
0.001985
0.002047
0.002091
0.001743
0.001745
0.001830
0.001539
0.002102
0.001882
0.002645
0.002653
0.002901
0.002135
0.001478
0.001941
0.002034
0.002872
0.002444
0.002028
0.003237
0.001719
0.001153
0.000666
