# vtk DataFile Version 2.0
Unstructured Grid Example
ASCII
DATASET UNSTRUCTURED_GRID
POINTS 1108 float
1.000811 0.000311 -0.007660 
-1.000812 -0.000301 0.007588 
0.000398 1.004444 -0.001170 
-0.000344 -1.004545 0.001216 
-0.007538 -0.001178 0.994691 
0.007506 0.001221 -0.994734 
1.200775 0.000216 -0.005076 
-1.200762 -0.000138 0.005080 
0.000282 1.204304 -0.000794 
-0.000259 -1.204242 0.000861 
-0.005035 -0.000795 1.195003 
0.005061 0.000825 -1.194976 
0.981700 0.196006 -0.007704 
0.924964 0.384335 -0.007500 
0.832774 0.558004 -0.006951 
0.708543 0.710235 -0.006247 
0.556955 0.835258 -0.005073 
0.383791 0.928158 -0.003923 
0.195841 0.985300 -0.002621 
-0.195065 0.984892 0.000198 
-0.383067 0.927562 0.001706 
-0.556117 0.834573 0.003247 
-0.707824 0.709489 0.004586 
-0.832350 0.557239 0.005587 
-0.924585 0.383616 0.006606 
-0.981537 0.195413 0.007207 
-0.981705 -0.195944 0.007640 
-0.924864 -0.384275 0.007438 
-0.832580 -0.557916 0.006900 
-0.708360 -0.710183 0.006193 
-0.556859 -0.835262 0.005139 
-0.383745 -0.928166 0.004028 
-0.195835 -0.985272 0.002603 
0.195173 -0.985015 -0.000203 
0.383086 -0.927716 -0.001686 
0.556151 -0.834630 -0.003327 
0.707810 -0.709501 -0.004567 
0.832339 -0.557258 -0.005595 
0.924556 -0.383601 -0.006622 
0.981541 -0.195389 -0.007226 
-0.007432 -0.196557 0.976139 
-0.007099 -0.384568 0.920216 
-0.006407 -0.558112 0.829019 
-0.005545 -0.710368 0.705857 
-0.004509 -0.835531 0.555152 
-0.003143 -0.928409 0.383039 
-0.001751 -0.985543 0.195950 
0.001135 -0.984654 -0.193588 
0.002562 -0.926752 -0.380565 
0.003934 -0.833241 -0.552600 
0.005075 -0.707830 -0.703235 
0.006015 -0.555480 -0.826727 
0.006817 -0.382067 -0.918490 
0.007266 -0.194123 -0.975233 
0.007422 0.196537 -0.976156 
0.007019 0.384560 -0.920354 
0.006462 0.558130 -0.829038 
0.005578 0.710352 -0.705794 
0.004496 0.835494 -0.555112 
0.003195 0.928400 -0.382992 
0.001817 0.985537 -0.195926 
-0.001072 0.984658 0.193610 
-0.002591 0.926795 0.380464 
-0.003937 0.833220 0.552625 
-0.005116 0.707862 0.703270 
-0.006070 0.555501 0.826682 
-0.006840 0.382108 0.918576 
-0.007315 0.194166 0.975289 
0.978607 0.000074 0.186771 
0.918917 -0.000186 0.373212 
0.824276 -0.000362 0.545109 
0.698791 -0.000551 0.695930 
0.546903 -0.000831 0.820353 
0.374225 -0.000968 0.913884 
0.187166 -0.001068 0.972895 
-0.202533 -0.001174 0.978490 
-0.390372 -0.001286 0.924633 
-0.563462 -0.001125 0.834821 
-0.715085 -0.001050 0.712041 
-0.838965 -0.000985 0.561704 
-0.929788 -0.000687 0.389403 
-0.984462 -0.000514 0.202210 
-0.978597 -0.000059 -0.186829 
-0.918979 0.000181 -0.373281 
-0.824412 0.000340 -0.545140 
-0.698884 0.000548 -0.695970 
-0.546967 0.000767 -0.820237 
-0.374220 0.000946 -0.913868 
-0.187185 0.001089 -0.972904 
0.202469 0.001243 -0.978489 
0.390340 0.001285 -0.924608 
0.563382 0.001170 -0.834780 
0.715027 0.001072 -0.712047 
0.838972 0.000973 -0.561691 
0.929795 0.000739 -0.389445 
0.984389 0.000550 -0.202226 
1.186097 0.188318 -0.005093 
1.142335 0.371849 -0.005069 
1.070570 0.546276 -0.004825 
0.972297 0.707411 -0.004609 
0.850064 0.851293 -0.004205 
0.706894 0.974102 -0.003490 
0.546152 1.073038 -0.002965 
0.371868 1.145499 -0.002261 
0.188363 1.189575 -0.001660 
-0.187819 1.189299 0.000069 
-0.371336 1.144893 0.000976 
-0.545542 1.072432 0.001544 
-0.706336 0.973385 0.002198 
-0.849420 0.850602 0.002898 
-0.971608 0.706939 0.003718 
-1.070099 0.545769 0.004117 
-1.141945 0.371452 0.004501 
-1.185899 0.187968 0.004832 
-1.186066 -0.188321 0.005116 
-1.142238 -0.371811 0.005058 
-1.070415 -0.546225 0.004835 
-0.972145 -0.707317 0.004573 
-0.850058 -0.851226 0.004077 
-0.706888 -0.974038 0.003473 
-0.546111 -1.073045 0.002930 
-0.371844 -1.145477 0.002274 
-0.188358 -1.189596 0.001666 
0.187882 -1.189329 -0.000053 
0.371391 -1.145019 -0.000949 
0.545626 -1.072491 -0.001568 
0.706387 -0.973432 -0.002246 
0.849456 -0.850571 -0.002932 
0.971621 -0.706918 -0.003791 
1.070098 -0.545750 -0.004140 
1.141938 -0.371430 -0.004505 
1.185905 -0.187927 -0.004854 
0.000658 -1.188992 -0.186791 
0.001339 -1.144216 -0.369763 
0.002112 -1.071129 -0.543265 
0.002674 -0.971718 -0.703068 
0.003414 -0.848549 -0.845529 
0.004077 -0.704645 -0.966915 
0.004365 -0.543833 -1.064478 
0.004670 -0.369805 -1.136023 
0.004931 -0.186819 -1.179923 
0.004980 0.188494 -1.180718 
0.004848 0.371617 -1.137686 
0.004603 0.545994 -1.066601 
0.004245 0.707143 -0.969295 
0.003737 0.851021 -0.847789 
0.003018 0.973982 -0.705516 
0.002464 1.073139 -0.545346 
0.001911 1.145774 -0.371478 
0.001018 1.189769 -0.188536 
-0.000694 1.188926 0.186754 
-0.001327 1.144272 0.369705 
-0.001955 1.071020 0.543445 
-0.002661 0.971690 0.703068 
-0.003415 0.848581 0.845514 
-0.004150 0.704652 0.967012 
-0.004402 0.543849 1.064503 
-0.004708 0.369812 1.136092 
-0.004953 0.186794 1.179943 
-0.005032 -0.188450 1.180728 
-0.004848 -0.371659 1.137598 
-0.004597 -0.545943 1.066586 
-0.004262 -0.707111 0.969376 
-0.003715 -0.851009 0.847849 
-0.003000 -0.974007 0.705565 
-0.002453 -1.073172 0.545377 
-0.001896 -1.145783 0.371520 
-0.000997 -1.189788 0.188619 
-1.188569 -0.000332 0.192567 
-1.146663 -0.000365 0.376020 
-1.076040 -0.000556 0.550381 
-0.978130 -0.000550 0.711115 
-0.855578 -0.000782 0.853711 
-0.712043 -0.000784 0.974941 
-0.550677 -0.000799 1.071896 
-0.376006 -0.000774 1.141561 
-0.192543 -0.000827 1.182898 
0.182110 -0.000713 1.177736 
0.364360 -0.000705 1.131871 
0.537249 -0.000618 1.058558 
0.697025 -0.000495 0.959980 
0.840248 -0.000411 0.838409 
0.963002 -0.000340 0.696158 
1.062549 -0.000144 0.536837 
1.136757 -0.000006 0.364187 
1.183355 0.000092 0.182207 
1.188547 0.000357 -0.192646 
1.146706 0.000467 -0.375995 
1.076080 0.000565 -0.550382 
0.978078 0.000594 -0.711089 
0.855593 0.000763 -0.853676 
0.712058 0.000736 -0.974917 
0.550659 0.000788 -1.071853 
0.375936 0.000803 -1.141577 
0.192545 0.000807 -1.182855 
-0.182155 0.000699 -1.177782 
-0.364435 0.000689 -1.131870 
-0.537246 0.000649 -1.058490 
-0.697057 0.000615 -0.960118 
-0.840292 0.000407 -0.838468 
-0.963089 0.000323 -0.696228 
-1.062665 0.000123 -0.536903 
-1.136808 -0.000005 -0.364213 
-1.183353 -0.000080 -0.182223 
0.824413 -0.398248 -0.420179 
0.421274 -0.796261 -0.444125 
0.401029 -0.377813 -0.838498 
0.897984 -0.299409 -0.342880 
0.299235 -0.897844 -0.335089 
0.689182 -0.336852 -0.653620 
0.563254 -0.632565 -0.542316 
0.872178 -0.482475 -0.114292 
0.186423 -0.620449 -0.761607 
0.620683 -0.171331 -0.774786 
0.880219 -0.156496 -0.466713 
0.210562 -0.854877 -0.479677 
0.958434 -0.138571 -0.272787 
0.810528 -0.293761 -0.523039 
0.687956 -0.646376 -0.347629 
0.466499 -0.865951 -0.203821 
0.631683 -0.760312 -0.178578 
0.533373 -0.478523 -0.705385 
0.804882 -0.142296 -0.591969 
0.561545 -0.756295 -0.351126 
0.988293 -0.122922 -0.120644 
0.774655 -0.619367 -0.156890 
0.154790 -0.952118 -0.276883 
0.941330 -0.307552 -0.165574 
0.742279 -0.471738 -0.491375 
0.270190 -0.954945 -0.152789 
0.557240 -0.301085 -0.781863 
0.339173 -0.706807 -0.625674 
0.838768 -0.470484 -0.295266 
0.505932 -0.181153 -0.849839 
0.152498 -0.759562 -0.633415 
0.201580 -0.480888 -0.852545 
0.183961 -0.317628 -0.928569 
0.357491 -0.557414 -0.753027 
0.644923 -0.482994 -0.603918 
0.125305 -0.988398 -0.124737 
0.454048 -0.603277 -0.662400 
0.336680 -0.215331 -0.918743 
0.212330 -0.131946 -0.967395 
0.508761 0.587473 -0.642727 
0.509455 0.789778 -0.363982 
0.815230 0.375898 -0.461689 
0.407810 0.472327 -0.789816 
0.354471 0.891409 -0.305868 
0.298550 0.315671 -0.904319 
0.177677 0.165283 -0.969477 
0.769316 0.218825 -0.616679 
0.679280 0.542038 -0.513471 
0.506012 0.851883 -0.175444 
0.609954 0.178485 -0.783001 
0.188085 0.883061 -0.443381 
0.175914 0.477877 -0.862963 
0.562155 0.689080 -0.476300 
0.154694 0.959653 -0.258244 
0.397936 0.141299 -0.911366 
0.130930 0.324912 -0.936114 
0.631086 0.707919 -0.341642 
0.121656 0.628807 -0.771247 
0.173720 0.759626 -0.634214 
0.308222 0.629073 -0.721757 
0.860407 0.489211 -0.178120 
0.616961 0.397349 -0.692927 
0.382056 0.771869 -0.522918 
0.766572 0.558120 -0.343062 
0.127183 0.990692 -0.113062 
0.291700 0.951735 -0.143232 
0.710858 0.694463 -0.154620 
0.951832 0.148465 -0.292848 
0.481248 0.308410 -0.829167 
0.860552 0.413388 -0.323333 
0.883512 0.172605 -0.456386 
0.943205 0.294759 -0.184398 
0.901728 0.286310 -0.348042 
0.985748 0.129595 -0.139252 
0.732732 0.388034 -0.576513 
0.454062 0.458781 0.749104 
0.450142 0.806657 0.376874 
0.827472 0.412052 0.363155 
0.325050 0.312703 0.879782 
0.302523 0.908129 0.291814 
0.903101 0.338401 0.246842 
0.960649 0.168934 0.201530 
0.546650 0.632442 0.535545 
0.102130 0.480296 0.863589 
0.745166 0.165989 0.625906 
0.434226 0.159145 0.871707 
0.428599 0.887603 0.178070 
0.863781 0.474089 0.160037 
0.253810 0.140546 0.945695 
0.253913 0.960468 0.138867 
0.937705 0.323251 0.115439 
0.604878 0.158750 0.762115 
0.507713 0.290595 0.794770 
0.312509 0.628546 0.701789 
0.775272 0.623122 0.107154 
0.668358 0.725798 0.163179 
0.582426 0.494057 0.629531 
0.188589 0.753878 0.622978 
0.757079 0.578851 0.290069 
0.626255 0.686189 0.359026 
0.385322 0.719968 0.567461 
0.551121 0.805872 0.216407 
0.110263 0.990201 0.121583 
0.104753 0.122443 0.978910 
0.459949 0.594345 0.646492 
0.145193 0.612805 0.769336 
0.697934 0.506743 0.489291 
0.635306 0.349372 0.670749 
0.150490 0.308534 0.930149 
0.164260 0.952180 0.265462 
0.777733 0.319456 0.521538 
0.833314 0.140248 0.513471 
0.213351 0.866661 0.448547 
0.881638 0.233433 0.389647 
0.249789 0.475912 0.832629 
0.509009 -0.790540 0.337618 
0.321990 -0.373625 0.859823 
0.324629 -0.877209 0.356788 
0.142614 -0.467160 0.867316 
0.504847 -0.159117 0.833133 
0.425418 -0.888066 0.185028 
0.600970 -0.547686 0.569206 
0.258756 -0.175679 0.939602 
0.226455 -0.961224 0.178324 
0.911441 -0.374917 0.155584 
0.763432 -0.401530 0.488720 
0.737018 -0.661743 0.135659 
0.862618 -0.189151 0.448779 
0.952248 -0.181992 0.226151 
0.498984 -0.322951 0.790192 
0.562241 -0.678199 0.464422 
0.609879 -0.777272 0.158311 
0.704905 -0.639158 0.297806 
[...]
POINT_DATA 1108
SCALARS u float 1
LOOKUP_TABLE default
0.007709
0.007637
0.004613
0.004717
0.009295
0.009250
0.005139
0.005139
0.004386
0.004336
0.007138
0.007179
0.007812
0.007756
0.007479
0.007132
0.006481
0.005909
0.005274
0.004111
0.004076
0.004524
0.005217
0.005897
0.006708
0.007253
0.007742
0.007670
0.007372
0.007027
0.006516
0.005977
0.005240
0.004236
0.004210
0.004625
0.005204
0.005908
0.006719
0.007272
0.008886
0.008208
0.007315
0.006553
0.006083
0.005525
0.005142
0.004303
0.004394
0.005238
0.006424
0.007661
0.008712
0.009196
0.008866
0.008075
0.007364
0.006586
0.006052
0.005544
0.005156
0.004282
0.004488
0.005219
0.006439
0.007731
0.008675
0.009196
0.008601
0.010694
0.012701
0.013942
0.014121
0.013130
0.011233
0.007876
0.007832
0.008648
0.009439
0.009735
0.008974
0.008030
0.008546
0.010604
0.012598
0.013855
0.014170
0.013143
0.011215
0.007827
0.007797
0.008565
0.009396
0.009731
0.009015
0.008013
0.005201
0.005281
0.005229
0.005263
0.005262
0.005035
0.005032
0.004911
0.004699
0.004074
0.003790
0.003654
0.003520
0.003673
0.004123
0.004324
0.004595
0.004885
0.005219
0.005244
0.005187
0.005154
0.005122
0.004980
0.005006
0.004892
0.004720
0.004106
0.003912
0.003733
0.003599
0.003692
0.004182
0.004342
0.004595
0.004906
0.003935
0.003406
0.003236
0.003623
0.004545
0.005689
0.006507
0.007095
0.007298
0.006762
0.006080
0.005425
0.004857
0.004553
0.004374
0.004673
0.004939
0.004727
0.003887
0.003469
0.002986
0.003607
0.004555
0.005674
0.006511
0.007069
0.007300
0.006788
0.006138
0.005417
0.004835
0.004518
0.004382
0.004698
0.004947
0.004755
0.005896
0.007502
0.008847
0.009330
0.008785
0.007905
0.006522
0.005251
0.005418
0.009386
0.011425
0.013063
0.013673
0.013081
0.012066
0.010373
0.008022
0.005824
0.005950
0.007521
0.008878
0.009276
0.008775
0.007901
0.006487
0.005187
0.005435
0.009321
0.011383
0.013122
0.013549
0.013008
0.011957
0.010247
0.007972
0.005809
0.007859
0.004972
0.006879
0.007882
0.004360
0.008210
0.006318
0.006337
0.006089
0.008461
0.008931
0.004635
0.008091
0.008580
0.006381
0.004657
0.005338
0.006896
0.009311
0.005506
0.007490
0.005944
0.004213
0.007138
0.007692
0.004132
0.007765
0.005366
0.007080
0.007784
0.005352
0.006771
0.007427
0.006048
0.007428
0.004234
0.006049
0.007265
0.007657
0.008971
0.008111
0.009763
0.008373
0.007150
0.007831
0.007911
0.009967
0.009475
0.007182
0.009261
0.006707
0.007425
0.008951
0.006046
0.008081
0.007808
0.008539
0.007048
0.006965
0.007834
0.008252
0.009630
0.008032
0.009108
0.005416
0.006147
0.007784
0.008725
0.008777
0.009067
0.009714
0.008259
0.009203
0.007953
0.009881
0.012075
0.006800
0.009949
0.012269
0.005277
0.009025
0.008926
0.009552
0.009168
0.013318
0.013549
0.005691
0.008029
0.012077
0.005049
0.008128
0.014213
0.013465
0.009460
0.007285
0.006954
0.011509
0.007283
0.008343
0.008092
0.008333
0.006361
0.004524
0.010455
0.010373
0.008449
0.010516
0.012931
0.010587
0.004646
0.011982
0.012388
0.005671
0.010762
0.010611
0.005601
0.010769
0.004919
0.008666
0.013348
0.004443
0.009552
0.011465
0.004406
0.007371
0.010440
0.005787
0.011155
0.008731
0.012168
0.007307
0.005132
0.006945
0.010141
0.009713
0.006060
0.005139
0.006280
0.006580
0.008181
0.012903
0.005383
0.009998
0.008721
0.008052
0.011763
0.007469
0.007327
0.008924
0.013499
0.012435
0.009182
0.004532
0.009032
0.008165
0.009650
0.008484
0.007234
0.007821
0.007874
0.009914
0.009530
0.007259
0.009382
0.006710
0.007471
0.008814
0.005988
0.008115
0.007806
0.008532
0.007010
0.006957
0.007844
0.008095
0.009676
0.008049
0.009049
0.005414
0.006185
0.007718
0.008652
0.008775
0.009084
0.009671
0.008149
0.009140
0.007927
0.009943
0.011852
0.006724
0.009771
0.012283
0.005324
0.008958
0.008879
0.009578
0.009129
0.013305
0.013534
0.005721
0.007956
0.012029
0.005022
0.008057
0.014063
0.013436
0.009326
0.007173
0.006980
0.011457
0.007097
0.008302
0.008079
0.008301
0.006391
0.004573
0.010462
0.010145
0.008432
0.010450
0.012816
0.010621
0.004729
0.011871
0.012259
0.005707
0.010747
0.010606
0.005557
0.010744
0.004903
0.008679
0.013426
0.004388
0.009522
0.011463
0.004346
0.007359
0.010372
0.005773
0.011097
0.008678
0.012112
0.007328
0.005043
0.006902
0.010077
0.009654
0.006024
0.005151
0.006290
0.006587
0.008164
0.012863
0.005391
0.009974
0.008654
0.007953
0.011709
0.007398
0.007311
0.008871
0.013470
0.012462
0.009097
0.004474
0.007862
0.004970
0.006930
0.007917
0.004381
0.008212
0.006312
0.006348
0.006099
0.008502
0.008948
0.004492
0.008041
0.008577
0.006359
0.004590
0.005193
0.006909
0.009321
0.005468
0.007458
0.005919
0.004214
0.007152
0.007688
0.004068
0.007806
0.005437
0.007068
0.007840
0.005384
0.006810
0.007457
0.006105
0.007421
0.004182
0.006106
0.007295
0.007676
0.005716
0.008696
0.009172
0.006526
0.003381
0.006447
0.003607
0.009734
0.005187
0.004046
0.008787
0.011846
0.004794
0.006400
0.010898
0.003885
0.012965
0.006068
0.003890
0.005856
0.004492
0.003235
0.008467
0.004200
0.007648
0.007399
0.005101
0.003589
0.006377
0.004300
0.009690
0.010455
0.007053
0.006857
0.008990
0.003831
0.008066
0.012518
0.004165
0.011915
0.007769
0.013199
0.004830
0.010241
0.003946
0.008503
0.003512
0.004322
0.003338
0.005650
0.003273
0.007906
0.005479
0.004354
0.005255
0.005170
0.010012
0.011285
0.003677
0.011915
0.007318
0.010676
0.008451
0.008540
0.006278
0.006515
0.007813
0.006025
0.007223
0.005371
0.005326
0.005827
0.005373
0.009495
0.006336
0.005844
0.005724
0.009503
0.007649
0.005048
0.008125
0.007603
0.006260
0.006470
0.005695
0.008307
0.005208
0.008851
0.005914
0.006310
0.005328
0.006647
0.007589
0.007235
0.008849
0.009291
0.008259
0.008944
0.007492
0.005135
0.009350
0.006131
0.008489
0.005123
0.008882
0.006869
0.009592
0.006741
0.008858
0.007253
0.006318
0.006912
0.007612
0.008267
0.009226
0.005537
0.004787
0.007678
0.009639
0.006946
0.006101
0.006044
0.005381
0.005135
0.011488
0.007420
0.003936
0.011475
0.008131
0.010537
0.006910
0.003643
0.010261
0.006587
0.003992
0.005278
0.007225
0.005344
0.005245
0.007921
0.004332
0.003952
0.010954
0.012865
0.013504
0.011377
0.005526
0.008738
0.003531
0.009602
0.012140
0.008829
0.005525
0.008886
0.005273
0.007013
0.006225
0.008004
0.008807
0.008675
0.011439
0.004767
0.006193
0.004619
0.004690
0.005015
0.004564
0.009340
0.006452
0.010233
0.006828
0.012590
0.013479
0.012618
0.009952
0.009394
0.010869
0.005413
0.008595
0.009358
0.007415
0.004011
0.012833
0.004229
0.003312
0.004264
0.007239
0.005471
0.004107
0.004964
0.007107
0.004876
0.006372
0.005196
0.006266
0.004012
0.005392
0.003873
0.004863
0.004626
0.005142
0.003246
0.004245
0.008151
0.006572
0.006919
0.008738
0.005340
0.005183
0.004086
0.006323
0.005306
0.007739
0.005869
0.005297
0.004629
0.003533
0.003893
0.004650
0.005472
0.006345
0.005391
0.007274
0.005223
0.004294
0.004359
0.003846
0.004569
0.003558
0.004315
0.004346
0.006129
0.004549
0.006392
0.007943
0.008767
0.005844
0.007999
0.005914
0.007183
0.005284
0.006074
0.006358
0.004850
0.003893
0.008136
0.003842
0.003950
0.006519
0.010191
0.011241
0.007128
0.003626
0.006886
0.003731
0.005476
0.004302
0.006350
0.012557
0.013142
0.008108
0.004228
0.011143
0.007735
0.013469
0.004800
0.006317
0.005243
0.004299
0.003416
0.008711
0.012503
0.008586
0.005590
0.004078
0.003804
0.006558
0.011103
0.009362
0.010841
0.012000
0.008886
0.008411
0.010317
0.004879
0.008691
0.004818
0.012736
0.012576
0.009537
0.013507
0.006162
0.010832
0.005207
0.009028
0.003720
0.004779
0.004730
0.006383
0.004010
0.006830
0.008711
0.004261
0.005399
0.010856
0.006761
0.010957
0.004534
0.009492
0.008496
0.007225
0.005443
0.004082
0.004917
0.007096
0.004856
0.006375
0.003992
0.005182
0.006295
0.004034
0.003951
0.005398
0.003743
0.004627
0.005179
0.003221
0.004279
0.008148
0.006526
0.006864
0.008727
0.005331
0.005182
0.003551
0.006318
0.005259
0.007761
0.005866
0.005301
0.004777
0.004516
0.005583
0.006370
0.005321
0.007272
0.005159
0.004310
0.004462
0.003769
0.005084
0.003523
0.004385
0.004289
0.006133
0.004508
0.006415
0.007912
0.008737
0.005780
0.007990
0.005875
0.007187
0.005304
0.006072
0.004761
0.006391
0.004472
0.008104
0.003550
0.004030
0.003970
0.005705
0.008696
0.009910
0.006566
0.003401
0.006480
0.003651
0.005206
0.004105
0.011913
0.004798
0.012332
0.006385
0.010962
0.003882
0.012855
0.006060
0.003924
0.005899
0.004510
0.003275
0.008542
0.004207
0.011758
0.007390
0.005110
0.003636
0.006407
0.004338
0.009566
0.007804
0.010526
0.010803
0.007124
0.006859
0.009079
0.003821
0.008140
0.012578
0.004152
0.011429
0.007774
0.013215
0.004802
0.010312
0.003938
0.008584
0.003501
0.004367
0.003390
0.005669
0.003299
0.007964
0.005453
0.004394
0.005283
0.010150
0.005184
0.010035
0.003706
0.008721
0.008141
0.007634
0.009005
0.008652
0.006535
0.005611
0.006021
0.005245
0.007473
0.005301
0.005555
0.006155
0.007520
0.009327
0.009530
0.006361
0.007795
0.006086
0.009403
0.006467
0.007005
0.005643
0.005121
0.005917
0.005784
0.008621
0.008808
0.005720
0.005142
0.005356
0.005189
0.009083
0.008700
0.009615
0.009224
0.008631
0.007192
0.007530
0.006043
0.008742
0.007679
0.009401
0.006105
0.009522
0.007436
0.008200
0.006950
0.006569
0.006220
0.005194
0.006514
0.005553
0.008257
0.008392
0.005878
0.004811
0.008837
0.008088
0.007640
0.005108
0.006225
0.007629
0.005783
0.006728
0.006895
0.010747
0.007579
0.008276
0.009463
0.009256
0.003431
0.001781
0.006869
0.006418
0.007790
0.006903
0.011332
0.006577
0.007082
0.007609
0.011529
0.008775
0.001589
0.004444
0.005505
0.005292
0.006660
0.010694
0.009088
0.010181
0.008843
0.009466
0.007727
0.011460
0.011036
0.009959
0.009505
0.006173
0.011693
0.011474
0.004444
0.009066
0.004038
0.008782
0.013164
0.007268
0.009343
0.007668
0.012578
0.005326
0.005375
0.011361
0.005790
0.006800
0.010519
0.012673
0.008780
0.008530
0.007772
0.008431
0.006157
0.008590
0.010061
0.008595
0.008672
0.007495
0.008071
0.008295
0.008673
0.010936
0.012950
0.006681
0.009103
0.010770
0.010957
0.010979
0.012230
0.007416
0.008909
0.010083
0.012152
0.010906
0.010401
0.009566
0.011108
0.010485
0.012879
0.011494
0.009298
0.004860
0.005350
0.004220
0.006914
0.004951
0.004812
0.008379
0.009448
0.007984
0.008244
0.008814
0.009066
0.004334
0.003323
0.008599
0.002590
