# vtk DataFile Version 2.0
Unstructured Grid Example
ASCII
DATASET UNSTRUCTURED_GRID
POINTS 1108 float
26718355927279818309507498469724608557085405633707845093000632341557763716853817651915755622191991345222033452583552055680958464.000000 20994038286531356959474173636883922804389247808958172761505108010102306767373023078885808938970731392658823044671812104498446336.000000 -307377752200420211111064043641984235208951240565912055894555383377776259918759627405856864583140111095964079057004166092161024.000000 
2629750044117580715358965479622410286217113983586334164136937384089429360678259935934039436731713071292918302890059996938108928.000000 8552819824507399365506764715907785871946237710914023292255113364093343148460748274284177050850919209655659353825932733728161792.000000 180558744440620932734479132666650083451094755858753730232042081648485787910076740800748059879582801795607337245147376216178688.000000 
-25742813107618512423701709222975723938826389119053840369337342585583927507537267845824284145864835927330210280731770566098288640.000000 217417419344207824071764534842887044820691163423897603047936396831770924294037782386117994330987471796377123739116667892924416.000000 409573668630495960653414634690366710632334233031224629070954566564948445034206061239594877514714467853359348699531485739220992.000000 
483235456746126756127755174703137362659885192671305529705649396523836486087657444141122215854478165676380022394555259317911552.000000 5231908111469424629986241162585064188941974986393865101129927425787220907296130212817830894797287553780882610537146591664406528.000000 70333418798464028914621518110604942580235940965093640711926417085224726356127317464301476080178353914460299398130584799338823680.000000 
2766395059138301099785010471451806076587686679760215707779131117495133535276648879207551582435225552274750678377977006176337920.000000 15295285946227518145945716240737349663807256361455087483298032758835069355948233271916657205057728452179448883699919066849345536.000000 20674112305733650522454662275959874058016423724796418680680508232808768550431152908509015510098232511969648808071096159810093056.000000 
2500965248615238638031343980932377978960007567619596176305499920775643635986683439927358232738000835273917655379067812855152640.000000 755308518590320986169586017811186693372537815996365173707385009738235634577246481117010168103483459168471772449744838562152448.000000 -14789451570483594519441424361574978962112293299937574298877927573444732840597598628164530611220430441685587517501638395562033152.000000 
713443992620338692025954192376321729401487275681700397657587083001974735545973016723211685183538687034039137573221539627663360.000000 -366032158835031702505503988694956835846793887876991759561130285954175090078872526454613321896094691508630730390942618967080960.000000 -17426252719283437331575045755600071250207201422619749416832378198995379071137190507119933591093411161253250414378668433577345024.000000 
15021818600480595477868069220480696852117449966113112661971204392780105717208772129122678396624564161025642707646967935232114688.000000 716115064410121507084628356478999733290513349639494261853027543566018652874015123187909233381523597975363036187315643405565952.000000 62255746286266431965508926802924039781121167612632580223776892061899199325889962742514467494383852241083647789155170652258304.000000 
1612390962364387225615605129045447339873976284023123719932017005697972425418346663811731322732832885513928998319913992391229440.000000 83222393789969911406673521253810189445836449452253326705093674371101696914674750749060139746225115781000721009506372875714560.000000 -232885912908898805431871429471513913594980452951074654190854324861756463420468885938720809258610189997368315901982462063935488.000000 
391424949500736372579505723475533017157510376185419423291482881371450284905469257325451987575779370494312291832199007900270592.000000 91434370567156806264136827912362126216683412479228824701268434084852850464119257093515375986790479278021924241933223430455296.000000 9847741779773957185797818278185863335445514261632048771308012680074067062111057034866286723808961880020370500971744085845999616.000000 
1727459255229791355536737982795232502406814659660926242366205846559143861708252753961708255565127514086062484736348529004380160.000000 -1368227576104755811941607798373942975589804539519875334163750367318613726162341801184390887394053560931099030898419395085729792.000000 -6871744260554631200382270401009276291797764559633459185777925518349526911002536062213583538295041386508943867773038199197138944.000000 
-19963291702051565427835007049927110505558322205486779425673892960018276851109823443481766809436764341456441725418709711469936640.000000 -4564310265387919860100005104816533117307339464058060127114348391090706298821088154785593902431586015547264030026716653782302720.000000 -12809049983108099728172590654064655068305924481412600053437749076764695931278975880443158178367943553072945575135133629939712.000000 
1932113031945450018110562538476648419241665794307853346799155108841258632766765324069338790019969248016229108994203222315892736.000000 16993959162290172985451474270865133026199194438795847817071994017862707470025923905713907966208909765743830435040275926823731200.000000 -7715114121512971589164036745862490137336573960769292331550942735951419170489133951218811046122800214319506954807018679624007680.000000 
2127357558091566787627442679524259079716387317824081225415161224871154814377765392247180792301803813688293940947735898847444992.000000 -735072172999730986801464206130840034518870290381640159196964642781682826843051826648372749576965654702040397955843868772532224.000000 13942616381642955138595177934325215885999109555195710838620291737433566879138658632139009167829651561089189487847649862490259456.000000 
-7542913793044515286543241157651439039278505645430231257249010915583431799340106594583069743488790609523266067546542098360565760.000000 -718734686398592851660509032729116340882272215238545369012242688411148296397612206697045482509766199879824430105372412430254080.000000 38678343147352405197513789850992168397930686415524740220436878641337254082336673840130537936665675437277485820407946254745600.000000 
2891624480391094148688654042617716629117680356450417357429510157207040569597458477987204080439297705342691205680261181755883520.000000 772022360480092743658998023985958629685543945013358439407193711095421436907515178297999357868151872593063535392027638713286656.000000 150285355613149725282475749585980144044312036957976771487236874754068233075943098150707065184126093778085235962801699269115904.000000 
-43403875689693707277014270060606024365468463237308266462717678177477693235972080293056435263782141906290261685848491260989407232.000000 -17366382528426349000078860856362067432315214360585757690798214518107219915935905676380406872550198756292811742883820836745117696.000000 294842104882260952603398441079795857607305114890191514573616326426419414100777904548064049210470797916153361814699835312308224.000000 
26790351367859617348976370760145344627912982979113692732146962119957390888760764713311661872857244338686702121104251907219652608.000000 -208714468497020100317833213554842386383360523376446726185136913029414241742056562228932640637145091823799016160905883384020992.000000 -4646572568853061246451197132801716088837311083407802065578794899067465740168236432106691473515553020550704618553637834751737856.000000 
32526495540263254687060576616923245478107426772258800392095181355582519256497585568701436156101846894376565231250250665226665984.000000 -6486067494793351240375305090595649583083784305782517037728151920613683491851885480375505013653819463751419608766878537199124480.000000 241830736734856744303918151680722039100463929418295770251290950691960003375107915253928634985673856859793827173004600131190784.000000 
1964981714567734125086576974614991512347759873491197913721691967429044465391963947546383204607649403718102326833485017553829888.000000 -1860008354584874035089870367295098666304674972487313258186968169044724126377838442334743860962690893690614163475615619158638592.000000 260644320201372655771664642062596046707547459278531716023401493795651077132586508900555555996296158941194470522908170824712192.000000 
3311237798786232870657256037116296390634583533706919598298064628145091471812043454713305384531397145098359874746546615618633728.000000 680161312676551734608825939202211254731494244179360133861040578063828419865299753526737032879750463789198712056667343054438400.000000 432390927672705795801233174732945702226400056741380352139179829485131985726904004894204841359961142402748500863427887627239424.000000 
-43497374798927666607863382644160274865981226110468575085459771315397190014494641553771030977995345396287300884128747883006525440.000000 -1132593397574956082358069027977282186390379167478808814440356894560267346107700552395152756917482060150590745568507458888925184.000000 -7717903764352615915730199232778053427335397569183652439833329804648065038499955203800574181133745604654818637518360067665035264.000000 
54185315255178113946729258579447614070853084495469741612371000166202815361913225907267166310162072896238978827240567681272774656.000000 1086668949613496961905762857483838997921762751493407927236728039541961820996138429576618894492323056721612867502724530172854272.000000 -14285584719916135752045190828007850802354845468964925152402022427390724943500514469544412317441326621364074155812080665703219200.000000 
2737578287825847349030912208642929999568114962230647641210897250224571289960355433198822100730524489948793044249118145895202816.000000 2765688331440587013392762287313978357612987243482300669916109093806859371598397711060756432807722143517836332934055733619589120.000000 347068587591519590554185118642178352883079209909663030618844384908109264667307109774740010425638905134463437726892349886300160.000000 
[...]
POINT_DATA 1108
SCALARS u float 1
LOOKUP_TABLE default
33981092803435571912374273269525886361326292175598711069655075218559529969254141880970053298619014012310570021254120193612840960.000000
8949799646093602660619174174601728539941698960617740295397174259803922074361976614196306313372955858509775590538629167796191232.000000
25746989098107090043229276339590520007470220450545811012333821548728146764931403049080915862926088376170390169118921673033121792.000000
70529399393966548989366575693353178416641916104708028719518505136618440854527079411511000668644857153816063352774803132124233728.000000
25865375184407773054877717740924654862206093144757282890573006802141831258820400903038102408477400495582174195281561303675568128.000000
15018428542584468498758841688870558902713306497507658429904176490915635143058010473608037653960230572209587120326104942869741568.000000
17444691619751862855683989090604789233965141765195806581203456650745985886373470761908230457674548766672412405083229714865192960.000000
15039006969516490354325682259130471429431479601835434898882014371098077594519423601698284419808247808126798055956163511543922688.000000
1631246894487127826799533758289693955257642216152562785255474288675068036848987942382189389009073734742391166038249751867031552.000000
9855941958854983455561109017254214863611854582166428301520359460030130233415314881260106973996705070447555321626936426255876096.000000
7216441738208524804838140777056360728335950755373954720874217696716927081527418210155767740923929805025737429576583554306932736.000000
20478430307318184036786851008495991903080999466629137769780502758785999746411101029982470560842702815390284807550146136158240768.000000
18763014008569317029572485887600860459726679626409232970024193686818811075133479950830234251621921007941127389959442658842640384.000000
14123120506642516233900040944173382631945828358082638127089449576914131312257860026124417120286151833370980373819634016055197696.000000
7577177842241945181356905592800121082240391309476301115792641457690170888987927610688465042607020103857059188742668781627637760.000000
2996680888715061665169738351059013121807512551106496995764170943498478946599750887687206953912786870571118732885469345756479488.000000
46750129399573089179137328837515492323660271339195633611319405510186220976600356360899165285673655705954418677114757781764702208.000000
27191122168464387277820073178389985681289279821676856126178258901423890815401621725342853859164564416095729876383760290752233472.000000
33167762447638973461582976564378398530846377933072448831399346532199138916950280987310876364542532951809978047083966589772496896.000000
2718219946833647935617785871775231622189264327810975114287588489382576840934380135862983669252526736741272465599901287476887552.000000
3407913890594398468633791439029138099551567720638138138630891685453284840411541674881491690218600260521193032828435539779649536.000000
44191293494515708430040811176143282322687202124737949768699489481454632052343506631779302717069234338799890251198467615238389760.000000
56047365410864705615175461368251110882562584422351470109627049941648303748345046133824725146834342256576527589727746520678137856.000000
3906894346297950804173191307949327623716755121318212260438375389264529314486125847072381453213958000697345880367903250967429120.000000
13734876225638832627149804712208990595945565094120172455326460112269424122758591869819126988047305780981676968097419299053895680.000000
91490240373865475564515689352362800808083230635358438705546783644358816824351309372434363629668832745626364958615478916123459584.000000
28797536903140603708137149843154108264027073420176594547477215951850138921251137322023407039911667897962748440274855741265805312.000000
57643689985691240269740229017780911849818973678421621908329219327292944592989518756007171612152301994485538987767209216471728128.000000
84120153421797229057629670851515660088366652863705326306697328212781599573219598787891195004567787305729372067530716855482187776.000000
6954033983463643813220134251665743390931774798047340304998286606111759711898094594289501915639924122743997244343905584502800384.000000
2426075147966922257535472549473704156533418396395401903457761823976871964640617436752710692109409720694419320914512552277311488.000000
1151493438683393223244451044132585230029526373743920966515726959334192772165648971450773262365407223982446120434633563105656832.000000
9165544304421614604883514191660636386067343477883186480880593446725956647231212898716577404866208624244751132686775899148779520.000000
8758535879476644858920094905049418092497373147703319439766894524148702087687159156387182846449990617094696218533562981537546240.000000
10695042152025734809887878157846469974149368892827287917884186524794541957718441217182331508754319583609684733755260381666738176.000000
7052353443882345870686326686879364667747367787909211687182192515740558296627222813254394132023801826924844659255090959158870016.000000
28698216853482065925851777082969482102349270818124321717910881687590440051350432264225528445935728778216862328060738641539891200.000000
18170687499372273453762659780538222301822550467601311358460391664596540896993023533188107695392579305786222120747777836581912576.000000
9568112644478833983968953932916424567149290701854348629545666985277560764777155915962831194968121670982433856563450796922896384.000000
1837339232693670131593951549566242793968866794327070566388969510708139674708326645327614803351019559280415142248136022433988608.000000
12783513795252367518710225830171782318966973606165409711102163941947355876105038213007060266904062571852333802674279260450979840.000000
12644751781750979823683540210533133338365534296519566674977847826217917171615621983714010967292990422869836884141358375323566080.000000
11295469918521363383371341307778797015607874429876372412938498654274600592749721761156793324349337113396389552603838300100231168.000000
2035337960772245134740266956554389189506230405842471850275560404654925745960771788411321665064212337419042678413602272118308864.000000
1616944935654483527190688692831849588640718416546836172720540019736529436080045858334523797488861644811083210004678677914189824.000000
22797839054883883301095004629089895070292189180104380263826919758672657244816589684697501367913363643150614857088609121862680576.000000
10226355854550393579505677470526127740460964087851618280555842734324189585971002794090792465658986118666029286580592280996937728.000000
18690864158106628643395192499263161103736201096369762763689636519784035548837852441237127093967196682103344743307569021237329920.000000
12971765615236805289298205118156751646430332540950117682349704041946531774319651437290181885537502749452094613570755669444788224.000000
30010896523243338093153419378819145977859754281208491849102029075700457474686914640163431322588746663463579848746119405718470656.000000
27673672769970089779984748144847541573093447656578326484873133706500042601136588969617065377195133950649613697873066365460414464.000000
12390656382218120805556216944785656202065296694436242512175432742678263797511413321560448847038056297256942216541031590346620928.000000
1349438234496927069869850665604178548237151101420179835587505903827467407250283998877632972839955296473910129712722394319159296.000000
21373847586387543174884236926947059795584494874885693069437760509727252806249716210058756539093485410198549980534236728866635776.000000
5503164853581134979577357497800473633156818424435219395391675593917687334908789271534515504324260613160500422798062330543341568.000000
12708363091678670020505515820780221903923197658322661250152326534298145589343958107229626642239646879353401519483265557561606144.000000
3744364418336466586867801049881733280061021006949667771310430886469592780986433033366107942204075153167685158339075395404431360.000000
19967715921988897241519391243879826127423244554678424515907482504906456560295195274120170011863395830995432602333676185283723264.000000
10499496826702882519946230165060016547794888117456241172551814889570993455856089215522382464947199004639992361162438257445699584.000000
4871822586383845559860168103197983098797117575569419042053565228071406733362762548384598347899485167321805833057097552083550208.000000
62459343131755597363353037828979185791096359250455728216139504152144317898104493261737081116766041926316956101837021237255077888.000000
19825848994903983034716343789361084517105334043525636715146178025954766702474950677029288405544391467406186178955615249195073536.000000
4600725288680439366658954846208511500623182747851010206582686261451028842882630721720581696609404635043363845589507528472920064.000000
31038918777530341588833173046072116863663379647236375023545743547852050795222639964500436214527431462080522118896193460072611840.000000
6201213590500072721428348503279956671341427532781463200770354075867987674876733240403407351949959215163471858609814816688177152.000000
2931852359799811191407958818888606119904904704394327757113317215987789415050702648153279635770621163108492352792820627873464320.000000
24509120723356385865241563425763178354160546363077152667550540905641523178045736593492781445737375337794030312428899056536780800.000000
2546423287299743817455258465666062838187874689428484518674671299453864360207654648557980582469041646853874233110702410317168640.000000
3232094735511871944073592668103682861310918255509402135664778224969195720884964673553042309209041276521109852397128834191720448.000000
23366413747360887994247224451090744687068605909958053002211291466778866147077672718562528590521141044763128368441370192816111616.000000
5402430310973063471566625711013271355304524382694124580638773853389240991381208396047763049715494487065687162636717936217161728.000000
9555152323705735108509519345993782683722665594670517073796069209344050659790985911915033145516877431370138732419887482529644544.000000
11274040823948485294072074826552191076241889243576439946813167602306658277818229662018492001568626220962377128705106260908834816.000000
38623739062084743213788964819137580576951291218090026990834156700162478452144404041254537630767266251484515717807222460101165056.000000
9044192707222201278072853167905081537769178267627193463267663153863083570303714219371178254398650794412445144343044830493933568.000000
14975321790261620021884624762334525699982623860030789907513607752501965931339593376677721576835172160219131197090006728525742080.000000
13857658451472533838495024102485646983686882822117217631482217873148487876165400431975631845752948996441883636362073264760029184.000000
16449983673537386372002991990027110799707097667670347654068920663666594186004898685287488645653990941742356830649637678258061312.000000
68999905835986698562593956171630901046089888327595276722884557293771978089892065743677086775403754637369289817769918816548028416.000000
2730068093387057549052747224052199044828727200056252432896774628639136923851800140550383037050877613721478116711553104204529664.000000
2176390920126303128118574836963714156342516818832194732018121079552900980552782917521045743084341558946904941028771786978754560.000000
5704528036530210728750131560249260166336501927039328472331989931458657895639721234239422147047024018412391941761992031966593024.000000
27927997497449885876506905911479595694762799107164801772451028923043734007949707069039267052283659849030209789968629179483160576.000000
41426446557065373842803682017113501171529000067287334195303276144234283609425451692555812177001375728866044221591236651404754944.000000
31263692805122037336216747570838861410344166899615535690094031253904329586752804074778039417723736295659798112374792109149913088.000000
96549963049674589165184814590777686003864986602978891026499046856610604183956153076733371737423957941351825219833703788019974144.000000
8318292807500372686745737387587968941845925759257594780052034901600398176146135967498633243227742927727392338593708706549989376.000000
20860080935083098680187901031216984479216894977775953213386322715963107618067417522147229337855347342145403445931959007987105792.000000
3636541055812612429997146327547092592536314004255166246136804450226427842088692016500221389914991452713302607583471138318057472.000000
4757282275120243408552775779833248560401329856480620690855296821437780309578467635763331333755278617297872415054060903190233088.000000
7099373683580481443330928451899145184668679836308866647309542048202719525517981353735772675017747895481653921965827663582986240.000000
1929656775489884655206246506828639687719234037654406379080930032538203731438454696727547101061188592784786546493193091314352128.000000
26338756785441925899109193119409996982271001434955435847829131600043140906308098578494137799732719700305239769325009050372407296.000000
98182359372240010316454425333123307254103508757420583909553909651794743251316462091518015811009244965840441506254046477280083968.000000
5582703657555611399600807830621232317843746834243587164856724401647289021044774262227319330014539015712536932752352162921578496.000000
9076448266187669429123646133366957979546661068222090547522317239890438023576386880123267602809274337241616499674653035742625792.000000
12377701091826848274189019426225038056797889793888642507067027098444876554511029814986276298445459988352227196416072998019137536.000000
24979397201021282326113366011064383515617243401018936510115346632461330427061781539257927731423055060577650063588885760017694720.000000
2366559255708212362650225740424782399666722057941015764697003780776489670077672473990495625792006801744986222861112141116604416.000000
15709130612976016625920826449455099247534293540775473633502773409700758342105985648603123468602753293734271749236122961827594240.000000
2710582109956316639291868858593764971488652633331255293262246001279752951431331220784826810454452246620820207508754959549071360.000000
26281448222743686581296134812343054454522822041635897942027429256116773116591788310416498572005116152358315642560069702757908480.000000
17840909227940577153480706305300881116915391503338846981457082262442238752190182902125253860568073214534209016094095546953760768.000000
7210922803744690242999956943456504406495650248956968654800909186857885137880300580702916207098342063997635870109738404295999488.000000
60656349211169596237153178256868692180988904565981840896783843526134067006609733171733233145695706685682861080839238103190208512.000000
13833004158999128826350177585970370155337468449867318828495038095913589429116536995452455675084964808272491217495677901322846208.000000
2208444172570351699257076301874143895690375030254664389721332147881659432577300630174295930539727934306068395127101426554109952.000000
3232191704665227267789278790148193980744477931543722141227127834728658122450735096290653221354408080229761633608261380765384704.000000
31728066029281434007256310068955991975900160195592523075303011455974755190211175375843249121951091459095789643279870849202520064.000000
1997490568042900990314861264512708945344755206586181333507872112278060623126900013850767289183726494171141155136697832392622080.000000
12266128428745005162565495728048065400831798778557731633021785066608473751997297613777031806898920406247674296376717603279732736.000000
45460948760138871704297428106430508941218938557900569506815320461215895664721296432967111853039298309045534240511684703472844800.000000
55046392176299971442500032294108152412280042779493898791256110306409018959826887312041608902816225891661323902597249948337569792.000000
4563344197033504012474859539817316131556486637233318935579791259945446299884942890447450650445203773079871744900477659723595776.000000
2759748048136795537892466251841641815141566369751039147107815385237057337270102475307851232164344685996192201579774531879305216.000000
1154838154249399298623556237312767513093820235574862722824830025106267180439719353895846275651883426600819817211585324994527232.000000
23608839853475119614785519132934304959695673214139945086211352500304638761754517934750295228657025144095361450813371909962465280.000000
15480441087574473370470091877402402745523880385885118240475566817504837251469123227310295263379515818941024208332640098594062336.000000
3132771020637527718173229741225413255458533910124932316477613405607652322905544491165118574415860434675259663366228302633107456.000000
7054709527938916060465000210777106414427782726067686023166015310899069972125262096394406014593073905178667796628197688372887552.000000
1148352693782762840439336087421699574610370573359834526085120219837172116524704401925997334181693307265186075778005644949323776.000000
4780057171469359328866124214602759983265793927148101165018568385680643262957203126888353931539451851543927176968554361097551872.000000
524103534284565469008316732210182694844432460534085243511122148057345661365224444379353560250898057200693910907124105632284672.000000
7442060106387616866888779762066622914019177322391072394432603969153366178225665086187014618597016451213164170780174240368820224.000000
1630593492247478907447265743506513382175588603285883003599708305549059234380711712351877246243781020815039032359227066998063104.000000
1123546481632020814767076592707101069053133700153229449158534526069893640116918359770958421322418170761880503010109591388160000.000000
11047107855496615796651969578348816672682405054461766265034210159782536235572372700126640772136281926448681811401468693467627520.000000
548435830908558445481633936541376134475115709447285486649409765357743029083934778827662319896766252566691124625134693983977472.000000
8315151326686724206052273368542615467993176293027862213016111043921993308058670661776126205633258504732613326300255095504240640.000000
46315693655951930179212419252744915390888280224543048899927742329561421596685213726461117041716627231564294023246052420738875392.000000
11836254073175116825025131561416203173246837168349945910045532108106791714443872634711920514852748871697209182049574421866217472.000000
13193681912040201317199980530422989725517583996818648548148838229202970172669749025558438603548298672307822900346285067304173568.000000
6695786140059281997031413309229864628279275160574562737511430967254195337703894590110721850107262845222658136789051677547167744.000000
580830688183199447871132338929679697793587909122201701296720453294626803615865825150997064574734107391012304818012931751936000.000000
3467758524534825202003505862507888043750567438407702540537540264439614179890758757280297589263703512616616715338700865994227712.000000
651943504014826657242872485023512743136217537730565056148653775291123912574732168700867518637899823165497180312877242408501248.000000
6648488034278010277383747312968894622577544276046968669077804307205576356827610681716395562242126801364984414388390479173517312.000000
7893126872966835247005037319945083810820116322462951329555513323854942933570828128093538150844677420974261213075325270968238080.000000
25481506086356562841843003059653819422339218210593869275689227376120726995446665522400106619522707359710929479424109484663898112.000000
24085671761665473809547526088447087858349887432423736506292795764634238022944175895759973634325019609310566366022540893991469056.000000
824508530770218401567226158651404877125208445765655754196367209837631360389825645369646491021802113589314756715870882214445056.000000
84905125420982012724611699013210686324825148612304720345897376376537929073182415859466355519876645968538739372419402878936940544.000000
57064511029510893112085877652280163372746083055255256960676228248857384395078139505671531503911541205438305533357846297424429056.000000
51881916079492494432178379700523689440581150839495439124670683340303757552772342887812445448668552340033143092886561173257846784.000000
20135329287299245474020845235463582777146731369379984985007732863778248358187999070170109129500098781131664076275541201096015872.000000
41991550741604593375243382414547252183460120263558393572085252444556273135355519698271615459448864486851013215965788179542310912.000000
7767150142343475812277840665467697906617192891436134294075945313737105535094934226718154966978555699831868520495330079839092736.000000