# vtk DataFile Version 2.0
Unstructured Grid Example
ASCII
DATASET UNSTRUCTURED_GRID
POINTS 1108 float
1.017186 0.022274 -0.003655 
-1.016917 -0.021960 0.003437 
0.022182 0.976966 0.006069 
-0.022172 -0.976811 -0.006129 
-0.003632 0.005909 1.006771 
0.003710 -0.006144 -1.005956 
1.216133 0.014716 -0.002425 
-1.216118 -0.014866 0.002277 
0.014693 1.178227 0.003787 
-0.015002 -1.178027 -0.003998 
-0.002347 0.003937 1.206351 
0.002311 -0.003814 -1.205923 
1.005408 0.215744 -0.002257 
0.953672 0.401844 -0.001094 
0.863352 0.572044 0.000056 
0.738062 0.719382 0.001610 
0.583907 0.836610 0.003009 
0.408240 0.919925 0.004171 
0.218258 0.967265 0.005139 
-0.173252 0.950621 0.006573 
-0.360898 0.888519 0.006959 
-0.535721 0.794352 0.006939 
-0.690973 0.671955 0.006669 
-0.821124 0.523945 0.006262 
-0.922123 0.355008 0.005554 
-0.988526 0.170810 0.004603 
-1.005040 -0.215562 0.002132 
-0.953433 -0.401724 0.001195 
-0.862735 -0.571841 -0.000190 
-0.737498 -0.719440 -0.001703 
-0.583756 -0.836924 -0.002972 
-0.408336 -0.920351 -0.004113 
-0.218457 -0.967195 -0.005275 
0.173058 -0.950491 -0.006733 
0.360753 -0.888654 -0.007062 
0.535570 -0.794293 -0.007104 
0.690643 -0.671940 -0.006787 
0.821109 -0.523915 -0.006332 
0.921877 -0.354757 -0.005715 
0.988429 -0.170517 -0.004816 
-0.008054 -0.186383 0.984977 
-0.011932 -0.370775 0.924565 
-0.015507 -0.539719 0.828550 
-0.018315 -0.687576 0.701425 
-0.020500 -0.808486 0.548448 
-0.021818 -0.899043 0.375055 
-0.022724 -0.956372 0.188292 
-0.021015 -0.960910 -0.200713 
-0.019089 -0.908385 -0.388379 
-0.016266 -0.820888 -0.561773 
-0.012864 -0.700686 -0.714253 
-0.009240 -0.552956 -0.839643 
-0.004969 -0.383408 -0.932358 
-0.000494 -0.198844 -0.988586 
0.007782 0.186679 -0.984450 
0.011792 0.370875 -0.923864 
0.015406 0.539897 -0.828605 
0.018110 0.687799 -0.701641 
0.020259 0.808679 -0.548570 
0.021619 0.899232 -0.375181 
0.022515 0.956383 -0.188368 
0.020873 0.960878 0.200454 
0.018979 0.908270 0.387989 
0.016405 0.820353 0.561769 
0.012948 0.700430 0.714183 
0.009546 0.552843 0.839558 
0.005205 0.383149 0.932694 
0.000614 0.198470 0.989019 
0.995940 0.022826 0.193020 
0.936403 0.022772 0.382264 
0.841379 0.021491 0.556576 
0.714042 0.019793 0.709068 
0.559740 0.017408 0.834410 
0.384331 0.013776 0.927984 
0.194184 0.009689 0.986165 
-0.201209 0.001208 0.989014 
-0.392124 -0.002763 0.933365 
-0.567454 -0.007626 0.841348 
-0.721124 -0.011214 0.716745 
-0.847532 -0.014917 0.564362 
-0.941352 -0.017899 0.389851 
-0.998568 -0.020249 0.200300 
-0.995883 -0.022615 -0.193252 
-0.936483 -0.022729 -0.382497 
-0.841528 -0.021302 -0.556799 
-0.714204 -0.019692 -0.709172 
-0.560115 -0.017061 -0.834177 
-0.384211 -0.013334 -0.927500 
-0.193858 -0.009699 -0.985355 
0.201534 -0.001724 -0.988674 
0.391778 0.002810 -0.933000 
0.567403 0.007444 -0.841124 
0.721391 0.011299 -0.716808 
0.847914 0.014985 -0.564459 
0.941461 0.018238 -0.389996 
0.998568 0.020682 -0.200648 
1.208548 0.202731 -0.001776 
1.169452 0.386929 -0.000981 
1.099503 0.562000 -0.000209 
1.000101 0.722196 0.000530 
0.875086 0.862946 0.000915 
0.728501 0.980591 0.001864 
0.564285 1.072346 0.002430 
0.387156 1.136165 0.002952 
0.202411 1.171453 0.003561 
-0.171808 1.156408 0.004136 
-0.353158 1.107541 0.004661 
-0.524764 1.033264 0.004634 
-0.685029 0.936669 0.004913 
-0.830438 0.818153 0.004418 
-0.956435 0.678801 0.004107 
-1.060693 0.522735 0.003925 
-1.140745 0.352734 0.003501 
-1.193416 0.172083 0.003062 
-1.208128 -0.202502 0.001725 
-1.169139 -0.386468 0.000748 
-1.099166 -0.561869 0.000110 
-0.999671 -0.721688 -0.000561 
-0.875326 -0.862466 -0.000982 
-0.728735 -0.980522 -0.002001 
-0.564426 -1.072615 -0.002466 
-0.387207 -1.136397 -0.003064 
-0.202422 -1.171354 -0.003435 
0.171768 -1.156444 -0.004214 
0.352943 -1.107579 -0.004643 
0.524685 -1.033233 -0.004752 
0.684925 -0.936617 -0.004955 
0.830266 -0.817965 -0.004505 
0.956202 -0.678622 -0.004172 
1.060527 -0.522522 -0.003997 
1.140517 -0.352602 -0.003566 
1.193323 -0.172102 -0.003133 
-0.014247 -1.165947 -0.190351 
-0.013287 -1.125676 -0.373075 
-0.012048 -1.057668 -0.547417 
-0.010806 -0.963230 -0.708853 
-0.008645 -0.844303 -0.853639 
-0.006340 -0.703757 -0.977276 
-0.004382 -0.545359 -1.076795 
-0.002203 -0.372612 -1.149440 
-0.000224 -0.190108 -1.192964 
0.004954 0.182008 -1.188666 
0.006876 0.363976 -1.141829 
0.008783 0.534923 -1.066626 
0.010481 0.692494 -0.965311 
0.011817 0.832109 -0.841452 
0.013635 0.951133 -0.696894 
0.014087 1.046500 -0.536443 
0.014597 1.117487 -0.363928 
0.014931 1.161576 -0.182184 
0.014262 1.166000 0.190459 
0.013312 1.125572 0.372922 
0.011999 1.056864 0.547729 
0.011054 0.962659 0.708795 
0.008805 0.844032 0.853430 
0.005960 0.703717 0.977377 
0.004432 0.545346 1.076795 
0.002308 0.372663 1.149693 
0.000237 0.190311 1.193367 
-0.004755 -0.182753 1.189347 
-0.006867 -0.363764 1.142249 
-0.008964 -0.535130 1.066662 
-0.010561 -0.692455 0.965330 
-0.011796 -0.831978 0.841266 
-0.013743 -0.950978 0.696784 
-0.014188 -1.046288 0.536338 
-0.014707 -1.117369 0.363916 
-0.015010 -1.161542 0.182128 
-1.202214 -0.013852 0.192141 
-1.158373 -0.012932 0.376960 
-1.085424 -0.011257 0.552509 
-0.985757 -0.009935 0.713916 
-0.861436 -0.007444 0.857982 
-0.715862 -0.005272 0.981245 
-0.553930 -0.003233 1.079452 
-0.376972 -0.000863 1.150060 
-0.191867 0.001396 1.192802 
0.187040 0.006239 1.190408 
0.371523 0.008552 1.145688 
0.547039 0.010289 1.072889 
0.709086 0.011410 0.974064 
0.854190 0.013235 0.851287 
0.978644 0.014572 0.707653 
1.079741 0.014778 0.546220 
1.153880 0.015188 0.371598 
1.199682 0.015190 0.186991 
1.202427 0.013830 -0.192191 
1.158644 0.012881 -0.377123 
1.085916 0.011227 -0.552623 
0.986073 0.009758 -0.714057 
0.861496 0.007462 -0.858214 
0.715684 0.005491 -0.981234 
0.553798 0.003072 -1.079019 
0.377339 0.000720 -1.149689 
0.191512 -0.000884 -1.192513 
-0.187077 -0.006030 -1.189771 
-0.371465 -0.008985 -1.144865 
-0.546839 -0.010223 -1.072666 
-0.708674 -0.011940 -0.974160 
-0.854203 -0.013121 -0.851430 
-0.978748 -0.014395 -0.707771 
-1.079877 -0.014603 -0.546335 
-1.153976 -0.015041 -0.371676 
-1.199637 -0.015097 -0.187044 
0.819084 -0.374102 -0.420780 
0.402825 -0.768665 -0.447526 
0.393989 -0.368540 -0.846137 
0.897489 -0.276086 -0.342996 
0.278469 -0.868285 -0.339468 
0.684861 -0.319834 -0.656868 
0.549169 -0.608452 -0.545195 
0.863899 -0.451905 -0.114333 
0.171769 -0.610277 -0.770552 
0.620265 -0.160352 -0.780491 
0.884505 -0.137834 -0.467983 
0.190896 -0.832641 -0.485470 
0.965796 -0.117057 -0.272257 
0.808672 -0.273662 -0.524572 
0.672654 -0.615638 -0.348752 
0.445218 -0.829385 -0.206920 
0.612492 -0.723542 -0.180525 
0.524237 -0.462239 -0.710235 
0.807724 -0.126572 -0.594935 
0.543028 -0.724336 -0.353304 
0.998040 -0.100265 -0.118675 
0.760794 -0.585647 -0.157695 
0.132954 -0.924834 -0.282639 
0.941464 -0.281512 -0.164795 
0.733668 -0.447561 -0.492714 
0.248102 -0.920965 -0.157962 
0.553190 -0.289276 -0.787583 
0.323372 -0.687616 -0.630987 
0.830242 -0.442684 -0.295789 
0.504557 -0.173365 -0.857267 
0.134936 -0.745155 -0.641087 
0.190357 -0.474860 -0.862709 
0.176165 -0.315718 -0.939915 
0.345744 -0.543714 -0.759728 
0.635537 -0.462661 -0.606525 
0.103193 -0.958092 -0.130966 
0.441406 -0.584775 -0.666996 
0.332820 -0.211815 -0.928309 
0.208882 -0.132363 -0.978187 
0.525663 0.584657 -0.642850 
0.531578 0.785260 -0.359820 
0.836097 0.385900 -0.462706 
0.419970 0.467318 -0.791719 
0.375740 0.878801 -0.299770 
0.305253 0.310114 -0.909327 
0.179375 0.159168 -0.977784 
0.783455 0.228190 -0.619974 
0.700006 0.546141 -0.513742 
0.530590 0.848594 -0.169106 
0.619209 0.183458 -0.788217 
0.205997 0.862263 -0.437267 
0.184767 0.465816 -0.864822 
0.583174 0.687333 -0.474487 
0.174951 0.936806 -0.250999 
0.402348 0.141099 -0.918604 
0.135614 0.314638 -0.941459 
0.655182 0.710299 -0.338407 
0.133021 0.611786 -0.769382 
0.188608 0.741113 -0.630053 
0.321670 0.617921 -0.720809 
0.888507 0.502739 -0.174447 
0.632056 0.399949 -0.695838 
0.400442 0.761409 -0.519210 
0.791291 0.566623 -0.341435 
0.148513 0.967662 -0.105595 
0.313952 0.936877 -0.135992 
0.738922 0.701682 -0.149089 
0.970194 0.165492 -0.292129 
0.491048 0.307975 -0.833736 
0.884670 0.425782 -0.322441 
0.900041 0.186345 -0.458047 
0.967801 0.311532 -0.181701 
0.923180 0.300480 -0.347916 
1.005868 0.148813 -0.136529 
0.751068 0.394781 -0.578734 
0.476656 0.470307 0.767828 
0.477117 0.810077 0.389908 
0.857671 0.430519 0.377231 
0.341523 0.323117 0.898033 
0.327127 0.901809 0.302178 
0.932116 0.357525 0.257988 
0.984705 0.190241 0.210170 
0.574350 0.643170 0.552025 
0.117941 0.482396 0.879217 
0.767278 0.185289 0.641584 
0.449461 0.173247 0.888921 
0.454660 0.885236 0.188287 
0.894930 0.491382 0.170252 
0.265184 0.150867 0.961695 
0.277455 0.947962 0.147400 
0.965993 0.342549 0.123898 
0.623742 0.176139 0.779079 
0.527608 0.304834 0.813419 
0.334712 0.633296 0.718128 
0.806426 0.636275 0.116794 
0.698513 0.735346 0.174008 
0.608916 0.508073 0.647636 
0.210053 0.751565 0.636009 
0.788132 0.593974 0.303015 
0.656266 0.697347 0.373128 
0.410296 0.724688 0.582767 
0.579435 0.810675 0.227792 
0.132457 0.969845 0.129094 
0.112970 0.130105 0.993400 
0.484894 0.604141 0.663898 
0.163983 0.613278 0.783973 
0.727191 0.522767 0.505630 
0.659834 0.365875 0.688865 
0.163690 0.314457 0.946521 
0.187273 0.937984 0.274119 
0.805101 0.338112 0.537787 
0.855748 0.161096 0.527016 
0.236511 0.859925 0.459736 
0.907549 0.253583 0.402281 
0.268090 0.481840 0.849921 
0.490878 -0.750589 0.331430 
0.320376 -0.352636 0.863832 
0.305408 -0.838523 0.349042 
0.137137 -0.447673 0.868840 
0.511933 -0.139740 0.843278 
0.404299 -0.847187 0.178610 
0.592966 -0.515843 0.567673 
0.262292 -0.160361 0.949369 
0.205160 -0.923601 0.170740 
0.909609 -0.345309 0.157032 
0.761718 -0.372007 0.490857 
0.722500 -0.624766 0.133344 
0.871189 -0.163748 0.455377 
0.960888 -0.156177 0.230740 
0.499903 -0.300040 0.795476 
0.548682 -0.641969 0.459792 
0.591315 -0.736791 0.153934 
0.691751 -0.602500 0.295131 
[...]
POINT_DATA 1108
SCALARS u float 1
LOOKUP_TABLE default
0.028370
0.027932
0.032549
0.032663
0.009693
0.009326
0.021971
0.022045
0.026538
0.026904
0.007832
0.007415
0.032218
0.035439
0.035887
0.033339
0.028956
0.026195
0.027312
0.037815
0.042112
0.042660
0.039248
0.033859
0.028282
0.025896
0.031811
0.035176
0.035246
0.032843
0.028862
0.026218
0.027542
0.038059
0.042091
0.042809
0.039419
0.033904
0.028575
0.026181
0.012580
0.016872
0.022366
0.027371
0.031610
0.033928
0.034038
0.029466
0.025237
0.020373
0.016055
0.012610
0.009854
0.008671
0.012031
0.016688
0.022163
0.027030
0.031286
0.033633
0.033876
0.029338
0.025139
0.020763
0.016195
0.012806
0.010247
0.008922
0.027477
0.025992
0.023686
0.021064
0.018140
0.014469
0.011119
0.010325
0.013665
0.017233
0.020375
0.023618
0.026020
0.027448
0.027253
0.025990
0.023589
0.021033
0.017862
0.013901
0.010792
0.010331
0.013183
0.016990
0.020636
0.023958
0.026366
0.027837
0.027792
0.032478
0.034843
0.033788
0.030234
0.025204
0.019897
0.017367
0.020449
0.033179
0.038356
0.041405
0.040039
0.035629
0.030468
0.023964
0.018429
0.017917
0.027312
0.031972
0.034485
0.033164
0.030222
0.025403
0.020083
0.017367
0.020502
0.033176
0.038420
0.041484
0.040141
0.035888
0.030743
0.024231
0.018580
0.017870
0.024116
0.020609
0.016889
0.013664
0.010896
0.009186
0.008780
0.008651
0.008101
0.008308
0.009718
0.013458
0.017472
0.021431
0.025394
0.027995
0.028742
0.028512
0.024094
0.020688
0.017464
0.014168
0.011035
0.009009
0.008805
0.008928
0.008546
0.008017
0.009895
0.013420
0.017543
0.021582
0.025609
0.028250
0.028898
0.028592
0.022360
0.022305
0.021197
0.019883
0.017647
0.015721
0.014106
0.010765
0.008749
0.008139
0.009653
0.011157
0.012439
0.014658
0.016700
0.018204
0.019757
0.020983
0.022519
0.022529
0.021600
0.020095
0.017823
0.015670
0.013670
0.010673
0.008261
0.007578
0.009700
0.010985
0.012839
0.014587
0.016612
0.018151
0.019709
0.020882
0.023409
0.029092
0.012119
0.023662
0.032141
0.017941
0.024157
0.030135
0.014624
0.016192
0.022683
0.025744
0.025223
0.020930
0.030679
0.038467
0.038079
0.016798
0.020665
0.032823
0.026154
0.033829
0.031282
0.025971
0.023207
0.037007
0.014533
0.021102
0.027003
0.013916
0.019004
0.010859
0.008875
0.015462
0.019849
0.034279
0.019181
0.010511
0.009317
0.024060
0.026767
0.031406
0.019881
0.026060
0.015429
0.011820
0.026422
0.029036
0.027596
0.020881
0.027543
0.018219
0.027136
0.029471
0.014933
0.014730
0.029827
0.022331
0.025043
0.021134
0.035818
0.024724
0.024357
0.032914
0.029652
0.026695
0.033025
0.030350
0.019266
0.033783
0.029299
0.034135
0.032437
0.030979
0.028666
0.020693
0.025701
0.032284
0.015401
0.024142
0.032881
0.030616
0.026439
0.013167
0.024049
0.016059
0.026083
0.035280
0.012030
0.025447
0.034101
0.020170
0.019252
0.019138
0.034652
0.032044
0.025535
0.018436
0.032997
0.030233
0.022568
0.028711
0.027928
0.009931
0.022951
0.015521
0.029564
0.024320
0.011666
0.024897
0.028318
0.025859
0.021762
0.029132
0.015509
0.044247
0.022359
0.042883
0.022010
0.018832
0.044617
0.035241
0.015088
0.041253
0.029606
0.030769
0.039211
0.025455
0.026487
0.023781
0.040447
0.043657
0.039659
0.011589
0.016083
0.035829
0.038538
0.040769
0.034160
0.037427
0.023735
0.040441
0.030977
0.036394
0.033488
0.028158
0.036007
0.029005
0.028312
0.021243
0.018384
0.028880
0.036931
0.024205
0.026768
0.030599
0.019893
0.026107
0.015835
0.012107
0.026247
0.028907
0.027587
0.021036
0.027761
0.018240
0.026793
0.029556
0.015246
0.014712
0.029497
0.022484
0.025271
0.021424
0.035312
0.024721
0.024613
0.033009
0.029840
0.026736
0.032450
0.029885
0.019400
0.033383
0.028714
0.033552
0.031724
0.030641
0.028362
0.020510
0.025745
0.032242
0.014875
0.023818
0.032899
0.030447
0.026224
0.012810
0.024162
0.015564
0.026001
0.034627
0.011749
0.025589
0.033869
0.020288
0.019206
0.019196
0.034191
0.031448
0.025224
0.018542
0.033117
0.030051
0.022502
0.028629
0.028011
0.009503
0.022923
0.015367
0.029189
0.024217
0.011329
0.024723
0.028241
0.025954
0.021670
0.029480
0.015608
0.043891
0.022035
0.042454
0.021414
0.018683
0.044339
0.034869
0.014543
0.041008
0.029339
0.030512
0.038987
0.025270
0.026268
0.023518
0.040062
0.043453
0.039262
0.011060
0.015697
0.035406
0.038126
0.040421
0.033937
0.036956
0.023522
0.039992
0.030439
0.036071
0.033203
0.027874
0.035626
0.028726
0.027933
0.021184
0.018063
0.028618
0.036756
0.023317
0.029488
0.012325
0.023477
0.032597
0.017901
0.024305
0.029958
0.014855
0.016224
0.022387
0.026278
0.024950
0.020788
0.030572
0.038433
0.037487
0.016950
0.020500
0.032454
0.025794
0.033815
0.031210
0.025662
0.023155
0.036930
0.014625
0.021463
0.026947
0.014111
0.019296
0.011141
0.009042
0.015798
0.019909
0.033993
0.019507
0.010674
0.009465
0.036668
0.028696
0.017918
0.020989
0.041037
0.017971
0.038611
0.012945
0.017413
0.036700
0.008510
0.018233
0.031011
0.024933
0.016203
0.032933
0.012413
0.019168
0.041670
0.031697
0.029474
0.043207
0.016829
0.034367
0.015926
0.033833
0.021245
0.041246
0.017819
0.034060
0.022713
0.023491
0.029092
0.033734
0.027854
0.040792
0.025085
0.014890
0.027456
0.017466
0.021982
0.013993
0.023884
0.019926
0.036643
0.019222
0.038651
0.036712
0.039496
0.025983
0.042834
0.030412
0.038258
0.031842
0.018592
0.035643
0.024628
0.015256
0.034960
0.010965
0.010753
0.009694
0.026324
0.019659
0.012914
0.017337
0.032096
0.018876
0.030742
0.011353
0.019529
0.029931
0.009075
0.023815
0.015610
0.013440
0.020100
0.025318
0.016696
0.012645
0.031359
0.022145
0.022222
0.033595
0.022564
0.026970
0.010749
0.023075
0.017658
0.033502
0.023643
0.026502
0.016814
0.015254
0.021252
0.023897
0.018391
0.030316
0.017123
0.019700
0.021729
0.012304
0.019831
0.016378
0.019560
0.016161
0.027975
0.017571
0.029986
0.027495
0.031859
0.018938
0.033785
0.019942
0.027446
0.025879
0.023609
0.016406
0.026183
0.015176
0.027940
0.013436
0.009434
0.010939
0.023510
0.023329
0.016928
0.013474
0.028397
0.011694
0.028810
0.016037
0.009431
0.024186
0.018949
0.030471
0.014268
0.014334
0.034027
0.011589
0.022684
0.013806
0.025420
0.019242
0.014484
0.021328
0.032684
0.010873
0.015006
0.024701
0.011789
0.023737
0.028844
0.009477
0.020955
0.018354
0.026319
0.026996
0.021583
0.029500
0.017338
0.032049
0.010845
0.016038
0.025713
0.012692
0.028311
0.015108
0.032002
0.014318
0.031470
0.020817
0.016458
0.015134
0.025944
0.027584
0.021225
0.025145
0.008085
0.018324
0.030072
0.019838
0.017659
0.018078
0.017884
0.016956
0.012346
0.021017
0.030004
0.008774
0.015640
0.008307
0.016201
0.009452
0.018709
0.012539
0.029143
0.018160
0.033524
0.008626
0.025096
0.018863
0.037654
0.013296
0.010400
0.012409
0.015988
0.008038
0.018324
0.036647
0.016147
0.010493
0.017488
0.008398
0.016987
0.026026
0.025245
0.034898
0.018589
0.027309
0.021108
0.015794
0.016461
0.008498
0.009746
0.031463
0.023224
0.032526
0.013793
0.035838
0.009430
0.022697
0.007396
0.018145
0.012330
0.015545
0.009874
0.014708
0.011635
0.016489
0.019196
0.008467
0.021996
0.012089
0.032142
0.014852
0.029411
0.028854
0.027901
0.021661
0.014125
0.030605
0.017079
0.028752
0.016057
0.028646
0.017593
0.014765
0.021441
0.018019
0.014009
0.013566
0.021729
0.010856
0.014393
0.024473
0.031354
0.033527
0.023235
0.015968
0.023795
0.012445
0.025168
0.032455
0.017584
0.018891
0.024254
0.017958
0.010909
0.009281
0.021051
0.017771
0.021477
0.024293
0.019862
0.029597
0.011969
0.017764
0.016801
0.013897
0.016146
0.011063
0.025287
0.016015
0.027615
0.015952
0.028860
0.031556
0.032599
0.020251
0.023419
0.027383
0.021259
0.024914
0.025698
0.019296
0.011047
0.028378
0.009067
0.007490
0.012405
0.020876
0.027495
0.008796
0.015746
0.008308
0.016322
0.031071
0.009310
0.018816
0.030437
0.012321
0.029278
0.017832
0.008582
0.025291
0.018093
0.038012
0.013400
0.010433
0.012330
0.016108
0.008014
0.018564
0.024094
0.016050
0.010295
0.017623
0.008231
0.017057
0.026096
0.018191
0.026245
0.020784
0.015502
0.016507
0.008414
0.009775
0.032097
0.022298
0.032406
0.013633
0.035752
0.009241
0.022703
0.007391
0.018282
0.012420
0.015694
0.009811
0.014804
0.011503
0.016442
0.019199
0.008045
0.011763
0.021754
0.033409
0.014951
0.024313
0.037116
0.035287
0.037036
0.029066
0.016430
0.021233
0.041378
0.018177
0.038869
0.017512
0.036833
0.018208
0.031329
0.016305
0.025229
0.016371
0.033295
0.012630
0.018766
0.041972
0.032058
0.029728
0.043434
0.016932
0.034685
0.011675
0.034188
0.021500
0.041457
0.017858
0.034215
0.022975
0.013927
0.009232
0.022564
0.029341
0.034124
0.027882
0.041133
0.025379
0.015058
0.027738
0.016689
0.021567
0.014042
0.024163
0.020091
0.037000
0.019457
0.039039
0.037098
0.039706
0.026269
0.043133
0.030694
0.038588
0.031980
0.018625
0.024551
0.035944
0.010869
0.035248
0.008776
0.007827
0.015775
0.026142
0.030074
0.017709
0.011927
0.018883
0.011353
0.030665
0.023887
0.008912
0.027774
0.027891
0.021699
0.025433
0.022238
0.017209
0.033196
0.024513
0.013662
0.016043
0.020668
0.012465
0.017614
0.013234
0.027489
0.020773
0.022344
0.010237
0.019618
0.010165
0.029858
0.028209
0.025891
0.023426
0.023903
0.015675
0.017615
0.027967
0.019064
0.031250
0.028005
0.031571
0.021899
0.021742
0.018696
0.018023
0.014895
0.015988
0.016042
0.017883
0.012010
0.019458
0.018471
0.008521
0.023769
0.021064
0.022939
0.032957
0.019888
0.033671
0.025661
0.031443
0.009635
0.021590
0.029867
0.017868
0.022400
0.008908
0.011512
0.030554
0.012666
0.008149
0.023043
0.030106
0.023333
0.023665
0.028219
0.029484
0.021788
0.026606
0.017547
0.014968
0.040396
0.033632
0.032527
0.030025
0.029909
0.032061
0.029652
0.030687
0.031008
0.026393
0.011363
0.016910
0.023982
0.038573
0.045108
0.026687
0.031854
0.038895
0.031577
0.029851
0.024720
0.019165
0.018407
0.036096
0.026770
0.019357
0.029291
0.029637
0.011958
0.031078
0.030471
0.022465
0.027994
0.008893
0.012485
0.022358
0.017329
0.037420
0.032264
0.028085
0.032040
0.013456
0.012842
0.010024
0.022747
0.035284
0.010606
0.016329
0.028949
0.032523
0.031467
0.029265
0.010967
0.018623
0.026327
0.014249
0.011796
0.026274
0.027405
0.016309
0.021222
0.026502
0.030248
0.028011
0.033197
0.034668
0.043067
0.037373
0.039550
0.024043
0.033906
0.041340
0.028801
0.018724
0.022993
0.015835
0.010573
0.012117
0.034748
0.016880
0.029034
0.011457
