# vtk DataFile Version 2.0
Unstructured Grid Example
ASCII
DATASET UNSTRUCTURED_GRID
POINTS 1108 float
1.013986 0.018126 -0.002975 
-1.013767 -0.017870 0.002797 
0.018051 0.981255 0.004939 
-0.018043 -0.981129 -0.004988 
-0.002956 0.004809 1.005510 
0.003019 -0.005000 -1.004847 
1.213129 0.011975 -0.001973 
-1.213117 -0.012098 0.001853 
0.011957 1.182282 0.003082 
-0.012208 -1.182119 -0.003253 
-0.001910 0.003204 1.205168 
0.001881 -0.003104 -1.204820 
1.000823 0.211898 -0.001837 
0.948124 0.398276 -0.000890 
0.857415 0.568976 0.000045 
0.732297 0.717096 0.001310 
0.578631 0.835652 0.002448 
0.403481 0.920662 0.003394 
0.213944 0.969783 0.004182 
-0.177319 0.956238 0.005349 
-0.364955 0.895104 0.005663 
-0.539417 0.801264 0.005647 
-0.693977 0.678501 0.005427 
-0.823050 0.529834 0.005096 
-0.922450 0.360162 0.004520 
-0.987084 0.175332 0.003746 
-1.000523 -0.211750 0.001735 
-0.947929 -0.398179 0.000973 
-0.856913 -0.568811 -0.000155 
-0.731839 -0.717144 -0.001386 
-0.578507 -0.835908 -0.002419 
-0.403559 -0.921008 -0.003347 
-0.214106 -0.969725 -0.004293 
0.177161 -0.956132 -0.005479 
0.364837 -0.895213 -0.005747 
0.539294 -0.801216 -0.005781 
0.693708 -0.678489 -0.005523 
0.823038 -0.529810 -0.005153 
0.922250 -0.359957 -0.004651 
0.987006 -0.175093 -0.003920 
-0.006554 -0.188004 0.984196 
-0.009710 -0.372993 0.924438 
-0.012620 -0.542671 0.829094 
-0.014904 -0.691213 0.702483 
-0.016682 -0.812766 0.549774 
-0.017755 -0.903668 0.376475 
-0.018492 -0.960918 0.189558 
-0.017102 -0.964611 -0.199666 
-0.015535 -0.911271 -0.387318 
-0.013237 -0.822858 -0.560618 
-0.010468 -0.701881 -0.712922 
-0.007520 -0.553443 -0.838121 
-0.004043 -0.383273 -0.930779 
-0.000402 -0.198145 -0.987134 
0.006333 0.188245 -0.983767 
0.009596 0.373074 -0.923867 
0.012537 0.542816 -0.829138 
0.014737 0.691395 -0.702658 
0.016486 0.812923 -0.549874 
0.017593 0.903822 -0.376578 
0.018322 0.960927 -0.189619 
0.016986 0.964585 0.199455 
0.015444 0.911177 0.387001 
0.013350 0.822423 0.560615 
0.010537 0.701673 0.712865 
0.007768 0.553351 0.838052 
0.004236 0.383062 0.931052 
0.000499 0.197841 0.987486 
0.993118 0.018576 0.193406 
0.934071 0.018531 0.382342 
0.839533 0.017489 0.556388 
0.712750 0.016108 0.708703 
0.558963 0.014166 0.833862 
0.384024 0.011211 0.927220 
0.194353 0.007885 0.985163 
-0.200069 0.000983 0.987482 
-0.390366 -0.002249 0.931599 
-0.565241 -0.006206 0.839509 
-0.718514 -0.009126 0.714950 
-0.844541 -0.012139 0.562725 
-0.938098 -0.014566 0.388516 
-0.995256 -0.016479 0.199330 
-0.993071 -0.018403 -0.193594 
-0.934136 -0.018497 -0.382532 
-0.839655 -0.017335 -0.556570 
-0.712883 -0.016025 -0.708788 
-0.559269 -0.013884 -0.833673 
-0.383926 -0.010851 -0.926826 
-0.194088 -0.007893 -0.984504 
0.200334 -0.001403 -0.987205 
0.390085 0.002286 -0.931302 
0.565200 0.006058 -0.839326 
0.718731 0.009195 -0.715001 
0.844852 0.012195 -0.562803 
0.938187 0.014841 -0.388634 
0.995257 0.016831 -0.199613 
1.204205 0.199936 -0.001446 
1.164204 0.383929 -0.000798 
1.093861 0.558795 -0.000170 
0.994648 0.719057 0.000432 
0.870141 0.860261 0.000745 
0.724188 0.978772 0.001517 
0.560655 1.071762 0.001977 
0.384114 1.137115 0.002402 
0.199676 1.174017 0.002898 
-0.174771 1.161774 0.003366 
-0.356447 1.113822 0.003793 
-0.528493 1.039958 0.003771 
-0.688812 0.943028 0.003998 
-0.833807 0.823809 0.003595 
-0.959113 0.683743 0.003342 
-1.062279 0.526842 0.003194 
-1.140843 0.356102 0.002849 
-1.191891 0.174995 0.002492 
-1.203863 -0.199750 0.001404 
-1.163949 -0.383554 0.000608 
-1.093587 -0.558688 0.000089 
-0.994299 -0.718644 -0.000457 
-0.870336 -0.859871 -0.000799 
-0.724379 -0.978715 -0.001628 
-0.560769 -1.071980 -0.002007 
-0.384155 -1.137304 -0.002493 
-0.199685 -1.173937 -0.002796 
0.174739 -1.161804 -0.003430 
0.356272 -1.113852 -0.003779 
0.528429 -1.039932 -0.003867 
0.688727 -0.942986 -0.004033 
0.833667 -0.823656 -0.003666 
0.958924 -0.683597 -0.003395 
1.062143 -0.526669 -0.003252 
1.140656 -0.355994 -0.002902 
1.191815 -0.175011 -0.002549 
-0.011594 -1.169537 -0.189861 
-0.010813 -1.128580 -0.372655 
-0.009805 -1.059817 -0.546928 
-0.008794 -0.964643 -0.708199 
-0.007035 -0.845090 -0.852687 
-0.005160 -0.704052 -0.976074 
-0.003566 -0.545253 -1.075382 
-0.001793 -0.372278 -1.147918 
-0.000183 -0.189664 -1.191523 
0.004032 0.183072 -1.188025 
0.005595 0.365251 -1.141724 
0.007147 0.536760 -1.067107 
0.008529 0.694887 -0.966337 
0.009617 0.835167 -0.842770 
0.011096 0.954799 -0.698468 
0.011464 1.050729 -0.537997 
0.011879 1.121915 -0.365211 
0.012150 1.165980 -0.183215 
0.011606 1.169580 0.189949 
0.010833 1.128495 0.372531 
0.009764 1.059163 0.547182 
0.008996 0.964178 0.708152 
0.007166 0.844870 0.852517 
0.004850 0.704020 0.976156 
0.003607 0.545242 1.075382 
0.001879 0.372320 1.148124 
0.000193 0.189828 1.191851 
-0.003869 -0.183679 1.188580 
-0.005588 -0.365078 1.142066 
-0.007294 -0.536929 1.067136 
-0.008595 -0.694855 0.966352 
-0.009599 -0.835060 0.842619 
-0.011184 -0.954673 0.698378 
-0.011546 -1.050556 0.537912 
-0.011968 -1.121820 0.365202 
-0.012215 -1.165952 0.183170 
-1.199050 -0.011272 0.191318 
-1.155188 -0.010524 0.375816 
-1.082405 -0.009161 0.551071 
-0.982976 -0.008085 0.712320 
-0.859033 -0.006058 0.856222 
-0.713903 -0.004291 0.979304 
-0.552228 -0.002631 1.077545 
-0.375826 -0.000702 1.148423 
-0.191095 0.001136 1.191392 
0.187167 0.005078 1.189443 
0.371392 0.006960 1.144865 
0.546620 0.008373 1.072204 
0.708389 0.009285 0.973460 
0.853136 0.010771 0.850774 
0.977187 0.011858 0.707223 
1.077779 0.012026 0.545953 
1.151532 0.012360 0.371453 
1.196990 0.012362 0.187127 
1.199224 0.011254 -0.191359 
1.155408 0.010482 -0.375950 
1.082805 0.009136 -0.551164 
0.983233 0.007941 -0.712434 
0.859081 0.006072 -0.856411 
0.713758 0.004469 -0.979295 
0.552120 0.002500 -1.077192 
0.376125 0.000586 -1.148121 
0.190806 -0.000719 -1.191156 
-0.187197 -0.004907 -1.188925 
-0.371345 -0.007312 -1.144195 
-0.546457 -0.008319 -1.072022 
-0.708054 -0.009717 -0.973538 
-0.853146 -0.010678 -0.850889 
-0.977272 -0.011715 -0.707319 
-1.077890 -0.011883 -0.546047 
-1.151609 -0.012240 -0.371517 
-1.196953 -0.012286 -0.187170 
0.819037 -0.378319 -0.419676 
0.405522 -0.773286 -0.446681 
0.394025 -0.370202 -0.844610 
0.896652 -0.280258 -0.341852 
0.281833 -0.873156 -0.338585 
0.684359 -0.322834 -0.655487 
0.550791 -0.612528 -0.544200 
0.865048 -0.457291 -0.113255 
0.173453 -0.612010 -0.769299 
0.618912 -0.162426 -0.778770 
0.882501 -0.141286 -0.466601 
0.193868 -0.836288 -0.484552 
0.963594 -0.121041 -0.271100 
0.807791 -0.277231 -0.523278 
0.674704 -0.620886 -0.347803 
0.448778 -0.835527 -0.205963 
0.615604 -0.729828 -0.179484 
0.524740 -0.465039 -0.708933 
0.805800 -0.129505 -0.593353 
0.545757 -0.729734 -0.352421 
0.995781 -0.104473 -0.117720 
0.762902 -0.591490 -0.156645 
0.136655 -0.929233 -0.281702 
0.940897 -0.286197 -0.163738 
0.734164 -0.451714 -0.491625 
0.251978 -0.926566 -0.156914 
0.552589 -0.291401 -0.786019 
0.325377 -0.690844 -0.629986 
0.831013 -0.447534 -0.294709 
0.503420 -0.174869 -0.855489 
0.137330 -0.747534 -0.640023 
0.191267 -0.475934 -0.861257 
0.176340 -0.316146 -0.938329 
0.346823 -0.546064 -0.758463 
0.636099 -0.466137 -0.605399 
0.107179 -0.962966 -0.129913 
0.442706 -0.587913 -0.665890 
0.332191 -0.212556 -0.926610 
0.208173 -0.132445 -0.976605 
0.521260 0.584382 -0.642068 
0.526594 0.785165 -0.359784 
0.830965 0.383458 -0.461327 
0.416377 0.467599 -0.790875 
0.371115 0.880179 -0.300280 
0.302622 0.310691 -0.908328 
0.177680 0.160000 -0.976654 
0.779390 0.226008 -0.618264 
0.694932 0.544613 -0.512664 
0.525468 0.848330 -0.169436 
0.616003 0.182132 -0.786461 
0.201882 0.865207 -0.438108 
0.181848 0.467529 -0.864590 
0.578185 0.686746 -0.473935 
0.170685 0.940105 -0.252015 
0.400080 0.140791 -0.917025 
0.133405 0.316157 -0.940879 
0.649794 0.709009 -0.338009 
0.129757 0.614326 -0.769812 
0.184822 0.743768 -0.630662 
0.317966 0.619241 -0.720645 
0.882614 0.499672 -0.173856 
0.627829 0.398818 -0.694406 
0.396022 0.762422 -0.519291 
0.785675 0.564321 -0.340584 
0.144274 0.971042 -0.106641 
0.309408 0.938732 -0.136776 
0.733130 0.699616 -0.148996 
0.965867 0.162056 -0.290942 
0.487788 0.307531 -0.832306 
0.879174 0.422916 -0.321371 
0.895695 0.183434 -0.456497 
0.962548 0.308051 -0.180868 
0.918135 0.297406 -0.346657 
1.001590 0.145041 -0.135668 
0.746300 0.392902 -0.577241 
0.473776 0.468379 0.766143 
0.472604 0.809161 0.388606 
0.852841 0.427066 0.376284 
0.339906 0.321418 0.896383 
0.322830 0.902491 0.301048 
0.927227 0.353870 0.257510 
0.980667 0.186215 0.210162 
0.570117 0.641190 0.550475 
0.116212 0.482126 0.877499 
0.764581 0.181827 0.640693 
0.448198 0.170839 0.887675 
0.449913 0.885104 0.187270 
0.889356 0.487932 0.169810 
0.264558 0.149162 0.960384 
0.273109 0.949582 0.146429 
0.960882 0.338782 0.123818 
0.621809 0.173093 0.778035 
0.525413 0.302420 0.811934 
0.331658 0.632497 0.716474 
0.800650 0.633442 0.116300 
0.693016 0.733163 0.173215 
0.605172 0.505613 0.646041 
0.206936 0.751908 0.634610 
0.782842 0.590995 0.302069 
0.651255 0.695103 0.371884 
0.406504 0.723766 0.581209 
0.574360 0.809350 0.226758 
0.128361 0.972884 0.128073 
0.112864 0.128886 0.992013 
0.481345 0.602428 0.662243 
0.161567 0.613240 0.782388 
0.722730 0.519839 0.504278 
0.656641 0.362987 0.687460 
0.162603 0.313545 0.944876 
0.183244 0.940023 0.273071 
0.801210 0.334744 0.536635 
0.852841 0.157304 0.526417 
0.232772 0.860844 0.458474 
0.903653 0.249852 0.401704 
0.265967 0.480925 0.848191 
0.494765 -0.757589 0.333378 
0.322079 -0.356375 0.864509 
0.309485 -0.845118 0.350955 
0.139442 -0.451001 0.869485 
0.512191 -0.143238 0.843306 
0.408445 -0.854183 0.180313 
0.595543 -0.521637 0.569360 
0.263112 -0.163032 0.949079 
0.209357 -0.929838 0.172321 
0.910235 -0.350682 0.158098 
0.763114 -0.377429 0.492076 
0.725371 -0.631323 0.134787 
0.870693 -0.168432 0.455910 
0.959790 -0.160936 0.231428 
0.501195 -0.304210 0.796219 
0.551991 -0.648450 0.461735 
0.594961 -0.743872 0.155566 
0.694740 -0.609051 0.296772 
[...]
POINT_DATA 1108
SCALARS u float 1
LOOKUP_TABLE default
0.023087
0.022731
0.026488
0.026581
0.007888
0.007590
0.017879
0.017940
0.021596
0.021894
0.006374
0.006034
0.026218
0.028840
0.029204
0.027131
0.023564
0.021317
0.022226
0.030774
0.034270
0.034716
0.031940
0.027554
0.023015
0.021074
0.025887
0.028626
0.028683
0.026727
0.023487
0.021336
0.022413
0.030972
0.034253
0.034837
0.032078
0.027591
0.023254
0.021306
0.010238
0.013730
0.018201
0.022274
0.025724
0.027610
0.027700
0.023979
0.020538
0.016579
0.013066
0.010262
0.008019
0.007057
0.009791
0.013580
0.018036
0.021997
0.025460
0.027370
0.027568
0.023875
0.020458
0.016897
0.013180
0.010421
0.008339
0.007260
0.022361
0.021152
0.019276
0.017142
0.014762
0.011774
0.009048
0.008402
0.011121
0.014024
0.016581
0.019220
0.021175
0.022337
0.022178
0.021151
0.019196
0.017117
0.014536
0.011312
0.008783
0.008407
0.010728
0.013826
0.016793
0.019496
0.021456
0.022653
0.022616
0.026430
0.028355
0.027496
0.024604
0.020511
0.016192
0.014133
0.016641
0.027000
0.031213
0.033695
0.032583
0.028994
0.024794
0.019501
0.014998
0.014581
0.022226
0.026018
0.028063
0.026989
0.024594
0.020673
0.016343
0.014133
0.016685
0.026998
0.031266
0.033759
0.032666
0.029205
0.025018
0.019719
0.015120
0.014542
0.019625
0.016771
0.013744
0.011120
0.008867
0.007476
0.007145
0.007040
0.006593
0.006761
0.007908
0.010952
0.014219
0.017440
0.020666
0.022782
0.023390
0.023202
0.019608
0.016835
0.014212
0.011530
0.008980
0.007331
0.007165
0.007265
0.006954
0.006524
0.008053
0.010921
0.014276
0.017563
0.020840
0.022989
0.023517
0.023268
0.018197
0.018152
0.017250
0.016180
0.014361
0.012794
0.011479
0.008761
0.007119
0.006624
0.007855
0.009079
0.010123
0.011928
0.013590
0.014814
0.016078
0.017075
0.018326
0.018334
0.017578
0.016353
0.014504
0.012752
0.011124
0.008686
0.006723
0.006167
0.007894
0.008939
0.010448
0.011871
0.013519
0.014771
0.016039
0.016993
0.019050
0.023675
0.009862
0.019256
0.026155
0.014600
0.019659
0.024524
0.011900
0.013177
0.018459
0.020950
0.020526
0.017032
0.024966
0.031304
0.030988
0.013670
0.016817
0.026711
0.021283
0.027529
0.025457
0.021135
0.018886
0.030116
0.011827
0.017173
0.021975
0.011325
0.015465
0.008837
0.007222
0.012583
0.016153
0.027896
0.015609
0.008554
0.007582
0.019579
0.021783
0.025558
0.016179
0.021207
0.012556
0.009619
0.021502
0.023629
0.022457
0.016993
0.022414
0.014827
0.022083
0.023983
0.012152
0.011987
0.024273
0.018173
0.020380
0.017198
0.029148
0.020120
0.019822
0.026785
0.024130
0.021724
0.026875
0.024699
0.015678
0.027492
0.023843
0.027778
0.026397
0.025210
0.023328
0.016840
0.020915
0.026273
0.012533
0.019647
0.026758
0.024915
0.021516
0.010715
0.019571
0.013069
0.021226
0.028710
0.009790
0.020708
0.027751
0.016414
0.015667
0.015574
0.028199
0.026077
0.020780
0.015003
0.026853
0.024603
0.018365
0.023365
0.022728
0.008082
0.018677
0.012631
0.024058
0.019791
0.009494
0.020261
0.023044
0.021044
0.017709
0.023707
0.012621
0.036008
0.018196
0.034898
0.017912
0.015326
0.036309
0.028678
0.012278
0.033571
0.024093
0.025040
0.031909
0.020715
0.021554
0.019353
0.032915
0.035527
0.032274
0.009431
0.013088
0.029157
0.031361
0.033177
0.027799
0.030458
0.019316
0.032910
0.025208
0.029617
0.027252
0.022915
0.029302
0.023603
0.023040
0.017287
0.014961
0.023502
0.030054
0.019698
0.021784
0.024901
0.016189
0.021246
0.012887
0.009853
0.021360
0.023524
0.022450
0.017119
0.022592
0.014844
0.021803
0.024052
0.012407
0.011973
0.024004
0.018297
0.020565
0.017434
0.028736
0.020118
0.020029
0.026862
0.024283
0.021758
0.026407
0.024320
0.015787
0.027167
0.023367
0.027304
0.025816
0.024935
0.023081
0.016691
0.020951
0.026238
0.012105
0.019383
0.026773
0.024777
0.021341
0.010424
0.019663
0.012666
0.021159
0.028179
0.009561
0.020824
0.027562
0.016510
0.015630
0.015621
0.027824
0.025592
0.020527
0.015089
0.026950
0.024455
0.018312
0.023298
0.022795
0.007734
0.018655
0.012505
0.023754
0.019708
0.009220
0.020119
0.022982
0.021121
0.017635
0.023990
0.012701
0.035718
0.017931
0.034548
0.017426
0.015204
0.036082
0.028376
0.011835
0.033372
0.023876
0.024830
0.031727
0.020565
0.021376
0.019139
0.032601
0.035361
0.031951
0.009001
0.012774
0.028813
0.031027
0.032894
0.027618
0.030075
0.019142
0.032545
0.024771
0.029354
0.027020
0.022683
0.028992
0.023377
0.022731
0.017240
0.014700
0.023289
0.029911
0.018975
0.023996
0.010030
0.019105
0.026527
0.014568
0.019779
0.024380
0.012089
0.013202
0.018219
0.021385
0.020304
0.016917
0.024879
0.031276
0.030506
0.013794
0.016683
0.026410
0.020991
0.027518
0.025398
0.020884
0.018843
0.030053
0.011901
0.017467
0.021929
0.011484
0.015703
0.009067
0.007359
0.012856
0.016202
0.027663
0.015874
0.008686
0.007702
0.029840
0.023353
0.014581
0.017081
0.033395
0.014624
0.031421
0.010534
0.014170
0.029866
0.006925
0.014837
0.025236
0.020290
0.013186
0.026800
0.010102
0.015599
0.033910
0.025795
0.023986
0.035161
0.013695
0.027967
0.012960
0.027533
0.017289
0.033566
0.014501
0.027717
0.018483
0.019116
0.023675
0.027452
0.022667
0.033196
0.020414
0.012117
0.022343
0.014213
0.017888
0.011388
0.019436
0.016215
0.029819
0.015643
0.031454
0.029876
0.032141
0.021145
0.034858
0.024749
0.031134
0.025912
0.015130
0.029006
0.020042
0.012415
0.028450
0.008923
0.008751
0.007889
0.021422
0.015999
0.010509
0.014108
0.026119
0.015361
0.025017
0.009239
0.015892
0.024357
0.007385
0.019380
0.012703
0.010937
0.016357
0.020603
0.013587
0.010290
0.025519
0.018021
0.018084
0.027339
0.018362
0.021948
0.008747
0.018778
0.014369
0.027263
0.019241
0.021567
0.013683
0.012413
0.017294
0.019447
0.014966
0.024671
0.013934
0.016031
0.017683
0.010013
0.016139
0.013328
0.015918
0.013151
0.022765
0.014299
0.024402
0.022375
0.025926
0.015412
0.027493
0.016228
0.022335
0.021060
0.019213
0.013351
0.021308
0.012350
0.022737
0.010934
0.007677
0.008902
0.019132
0.018985
0.013776
0.010965
0.023109
0.009517
0.023445
0.013051
0.007675
0.019682
0.015421
0.024797
0.011611
0.011665
0.027691
0.009431
0.018460
0.011235
0.020686
0.015659
0.011787
0.017356
0.026598
0.008848
0.012212
0.020101
0.009593
0.019317
0.023473
0.007713
0.017053
0.014936
0.021418
0.021969
0.017564
0.024007
0.014110
0.026081
0.008826
0.013051
0.020925
0.010328
0.023039
0.012295
0.026043
0.011652
0.025610
0.016941
0.013393
0.012316
0.021112
0.022448
0.017272
0.020463
0.006580
0.014912
0.024472
0.016144
0.014371
0.014712
0.014554
0.013798
0.010047
0.017103
0.024417
0.007140
0.012727
0.006760
0.013184
0.007692
0.015225
0.010204
0.023716
0.014779
0.027281
0.007020
0.020423
0.015351
0.030642
0.010820
0.008463
0.010098
0.013011
0.006542
0.014912
0.029823
0.013140
0.008539
0.014232
0.006834
0.013824
0.021179
0.020544
0.028399
0.015127
0.022223
0.017178
0.012853
0.013395
0.006916
0.007931
0.025604
0.018899
0.026469
0.011225
0.029165
0.007674
0.018470
0.006019
0.014766
0.010034
0.012650
0.008035
0.011969
0.009468
0.013419
0.015621
0.006890
0.017900
0.009838
0.026156
0.012086
0.023934
0.023481
0.022705
0.017627
0.011495
0.024906
0.013899
0.023398
0.013067
0.023311
0.014317
0.012015
0.017448
0.014664
0.011400
0.011039
0.017683
0.008834
0.011713
0.019916
0.025516
0.027283
0.018908
0.012995
0.019364
0.010127
0.020481
0.026411
0.014310
0.015373
0.019737
0.014614
0.008877
0.007553
0.017131
0.014462
0.017478
0.019769
0.016164
0.024086
0.009740
0.014456
0.013672
0.011309
0.013139
0.009003
0.020578
0.013032
0.022473
0.012982
0.023486
0.025680
0.026529
0.016480
0.019058
0.022284
0.017300
0.020275
0.020913
0.015702
0.008990
0.023094
0.007379
0.006095
0.010095
0.016989
0.022375
0.007158
0.012814
0.006761
0.013283
0.025285
0.007576
0.015312
0.024769
0.010026
0.023826
0.014511
0.006984
0.020581
0.014723
0.030934
0.010904
0.008490
0.010034
0.013108
0.006522
0.015107
0.019608
0.013061
0.008378
0.014341
0.006699
0.013880
0.021237
0.014804
0.021357
0.016913
0.012616
0.013433
0.006847
0.007955
0.026120
0.018146
0.026372
0.011094
0.029094
0.007520
0.018476
0.006014
0.014878
0.010107
0.012772
0.007984
0.012047
0.009361
0.013380
0.015624
0.006547
0.009573
0.017703
0.027187
0.012167
0.019785
0.030204
0.028716
0.030139
0.023653
0.013370
0.017279
0.033673
0.014792
0.031631
0.014251
0.029974
0.014817
0.025495
0.013269
0.020531
0.013322
0.027095
0.010278
0.015272
0.034156
0.026089
0.024192
0.035346
0.013779
0.028226
0.009501
0.027822
0.017497
0.033737
0.014533
0.027844
0.018697
0.011334
0.007513
0.018362
0.023877
0.027769
0.022690
0.033473
0.020653
0.012254
0.022573
0.013581
0.017551
0.011427
0.019663
0.016350
0.030110
0.015834
0.031770
0.030190
0.032312
0.021377
0.035101
0.024978
0.031402
0.026024
0.015157
0.019979
0.029251
0.008845
0.028685
0.007142
0.006369
0.012837
0.021274
0.024474
0.014412
0.009706
0.015367
0.009239
0.024955
0.019439
0.007252
0.022602
0.022697
0.017658
0.020697
0.018097
0.014004
0.027014
0.019948
0.011118
0.013056
0.016820
0.010144
0.014334
0.010770
0.022370
0.016905
0.018183
0.008331
0.015965
0.008272
0.024298
0.022956
0.021070
0.019063
0.019452
0.012756
0.014335
0.022759
0.015514
0.025431
0.022790
0.025692
0.017821
0.017693
0.015214
0.014666
0.012122
0.013011
0.013054
0.014553
0.009774
0.015835
0.015031
0.006934
0.019343
0.017142
0.018667
0.026820
0.016185
0.027401
0.020883
0.025588
0.007841
0.017570
0.024306
0.014540
0.018228
0.007249
0.009368
0.024865
0.010308
0.006631
0.018752
0.024500
0.018988
0.019258
0.022964
0.023994
0.017731
0.021651
0.014279
0.012181
0.032874
0.027369
0.026470
0.024434
0.024339
0.026091
0.024131
0.024973
0.025234
0.021478
0.009247
0.013761
0.019516
0.031390
0.036709
0.021718
0.025923
0.031652
0.025697
0.024292
0.020117
0.015596
0.014980
0.029375
0.021785
0.015752
0.023836
0.024118
0.009731
0.025291
0.024797
0.018282
0.022781
0.007237
0.010160
0.018194
0.014102
0.030452
0.026256
0.022855
0.026074
0.010950
0.010450
0.008157
0.018511
0.028713
0.008631
0.013289
0.023558
0.026466
0.025608
0.023815
0.008925
0.015155
0.021424
0.011596
0.009599
0.021382
0.022302
0.013272
0.017270
0.021567
0.024615
0.022795
0.027015
0.028213
0.035047
0.030414
0.032185
0.019566
0.027592
0.033642
0.023438
0.015237
0.018711
0.012886
0.008605
0.009860
0.028277
0.013736
0.023627
0.009323
