# vtk DataFile Version 2.0
Unstructured Grid Example
ASCII
DATASET UNSTRUCTURED_GRID
POINTS 1108 float
0.983581 0.006882 0.003691 
-0.983882 -0.006855 -0.003773 
0.006897 1.031892 0.017266 
-0.007116 -1.031768 -0.017105 
0.003871 0.017318 0.984539 
-0.003727 -0.016993 -0.984831 
1.184632 0.004606 0.002461 
-1.184827 -0.004539 -0.002253 
0.004604 1.230203 0.011437 
-0.004569 -1.230157 -0.011592 
0.002622 0.011378 1.185400 
-0.002680 -0.011584 -1.185656 
0.968012 0.205182 0.007027 
0.916011 0.397080 0.010166 
0.828837 0.575003 0.012683 
0.709144 0.731452 0.014699 
0.560672 0.860567 0.016701 
0.389426 0.956088 0.017404 
0.202080 1.014029 0.017661 
-0.187916 1.008504 0.016391 
-0.374413 0.946268 0.014583 
-0.545346 0.847122 0.012025 
-0.694162 0.716290 0.009266 
-0.815600 0.559702 0.006425 
-0.906362 0.382304 0.003394 
-0.963113 0.191560 -0.000265 
-0.968181 -0.205017 -0.006939 
-0.915768 -0.396896 -0.010115 
-0.828698 -0.575083 -0.012658 
-0.709116 -0.731773 -0.014511 
-0.560694 -0.860945 -0.016338 
-0.389473 -0.956507 -0.017188 
-0.202334 -1.013984 -0.017543 
0.187763 -1.008383 -0.016143 
0.374268 -0.945880 -0.014536 
0.545168 -0.846704 -0.012105 
0.694043 -0.716165 -0.009403 
0.815699 -0.559651 -0.006363 
0.906378 -0.382298 -0.003608 
0.963100 -0.191493 0.000141 
0.002590 -0.180366 0.959667 
0.000873 -0.371088 0.899117 
-0.000860 -0.548539 0.805913 
-0.002343 -0.705467 0.683327 
-0.003716 -0.837247 0.534299 
-0.005338 -0.939017 0.363663 
-0.006186 -1.004575 0.177504 
-0.007700 -1.017889 -0.212649 
-0.007987 -0.963483 -0.400285 
-0.007908 -0.869917 -0.571457 
-0.007566 -0.741825 -0.719834 
-0.007020 -0.585549 -0.839033 
-0.006126 -0.407666 -0.924104 
-0.005066 -0.215479 -0.972866 
-0.002433 0.180339 -0.959782 
-0.000946 0.370611 -0.899534 
0.000576 0.547877 -0.805786 
0.002108 0.705099 -0.682995 
0.003728 0.836884 -0.534085 
0.005159 0.938654 -0.363522 
0.005905 1.004406 -0.177336 
0.007637 1.018451 0.212869 
0.007761 0.964331 0.400545 
0.007830 0.870402 0.571841 
0.007558 0.742144 0.719945 
0.006899 0.585888 0.839215 
0.006258 0.407969 0.924147 
0.005115 0.215791 0.972844 
0.966147 0.010116 0.196087 
0.911562 0.013161 0.380762 
0.821505 0.015564 0.550968 
0.699664 0.017072 0.700215 
0.550806 0.017799 0.822059 
0.380680 0.018501 0.912142 
0.195966 0.018469 0.967304 
-0.188171 0.015589 0.964098 
-0.372609 0.013024 0.906914 
-0.542197 0.010553 0.814662 
-0.691236 0.007615 0.691681 
-0.813886 0.003969 0.542471 
-0.906154 0.000074 0.372246 
-0.963671 -0.003402 0.187952 
-0.966347 -0.009997 -0.196081 
-0.911677 -0.012936 -0.380667 
-0.821655 -0.015383 -0.551000 
-0.699752 -0.017001 -0.700168 
-0.550456 -0.018013 -0.822358 
-0.380814 -0.018628 -0.912576 
-0.195960 -0.018049 -0.967368 
0.188439 -0.015434 -0.964545 
0.372731 -0.013093 -0.907083 
0.542383 -0.010555 -0.815080 
0.691632 -0.007477 -0.692113 
0.814240 -0.004258 -0.542802 
0.906283 -0.000417 -0.372783 
0.963612 0.003457 -0.188281 
1.172492 0.193568 0.004581 
1.133011 0.378627 0.005770 
1.066201 0.555691 0.007306 
0.972435 0.720340 0.008679 
0.853569 0.868565 0.009656 
0.712813 0.995392 0.011114 
0.553090 1.098374 0.011472 
0.378343 1.172605 0.011566 
0.193848 1.217203 0.011670 
-0.184313 1.212498 0.010811 
-0.367511 1.163769 0.010185 
-0.540650 1.086088 0.009271 
-0.698591 0.981765 0.008002 
-0.839177 0.854445 0.006401 
-0.958478 0.706808 0.004775 
-1.053872 0.543556 0.002642 
-1.124602 0.367933 0.001293 
-1.168210 0.183873 -0.000693 
-1.172714 -0.193848 -0.004365 
-1.132991 -0.378634 -0.006049 
-1.065904 -0.555630 -0.007412 
-0.972436 -0.720408 -0.008621 
-0.853782 -0.868891 -0.010093 
-0.712976 -0.995641 -0.011157 
-0.553213 -1.098706 -0.011305 
-0.378548 -1.173184 -0.011565 
-0.193938 -1.217342 -0.011633 
0.184271 -1.212115 -0.010846 
0.367459 -1.163443 -0.010079 
0.540415 -1.085740 -0.009149 
0.698384 -0.981597 -0.007795 
0.839115 -0.854292 -0.006364 
0.958493 -0.706674 -0.004774 
1.053935 -0.543516 -0.002667 
1.124614 -0.367852 -0.001376 
1.168143 -0.183713 0.000653 
-0.004969 -1.220626 -0.200876 
-0.005335 -1.179476 -0.386430 
-0.005257 -1.107272 -0.562412 
-0.005056 -1.005168 -0.722796 
-0.005097 -0.878249 -0.863732 
-0.004666 -0.730401 -0.982584 
-0.004329 -0.564898 -1.075534 
-0.003854 -0.386619 -1.140483 
-0.003198 -0.200626 -1.177050 
-0.001537 0.177150 -1.165452 
-0.001041 0.360056 -1.118070 
0.000083 0.534422 -1.044651 
0.000508 0.696459 -0.948057 
0.001847 0.843686 -0.828743 
0.002355 0.971265 -0.688810 
0.003035 1.076493 -0.531680 
0.003435 1.156541 -0.359875 
0.004243 1.208835 -0.177366 
0.004972 1.220986 0.200851 
0.005110 1.179843 0.386547 
0.005756 1.107085 0.562656 
0.005139 1.005589 0.723192 
0.005076 0.878613 0.863916 
0.004969 0.730692 0.982510 
0.004254 0.565040 1.075608 
0.003887 0.386694 1.140559 
0.003246 0.200578 1.177023 
0.001591 -0.177254 1.165045 
0.000862 -0.360225 1.117819 
0.000104 -0.534372 1.044975 
-0.000459 -0.696549 0.948741 
-0.001965 -0.843947 0.829136 
-0.002330 -0.971701 0.688917 
-0.003036 -1.076877 0.531779 
-0.003466 -1.156862 0.359883 
-0.004279 -1.208980 0.177299 
-1.168751 -0.002361 0.182754 
-1.124021 -0.000752 0.363184 
-1.051588 0.001163 0.534191 
-0.954507 0.002639 0.692052 
-0.833641 0.004545 0.833854 
-0.692421 0.006977 0.954858 
-0.534399 0.008054 1.052559 
-0.363068 0.009549 1.124574 
-0.182661 0.010484 1.169651 
0.187958 0.011818 1.171903 
0.369149 0.012367 1.129604 
0.541242 0.012334 1.058944 
0.700278 0.012382 0.962254 
0.841775 0.011151 0.841610 
0.962213 0.009913 0.700029 
1.058409 0.009406 0.541235 
1.128873 0.008009 0.368778 
1.171445 0.006805 0.187940 
1.168604 0.002666 -0.182673 
1.124113 0.000872 -0.363060 
1.051869 -0.001162 -0.534383 
0.954829 -0.002723 -0.692364 
0.834048 -0.004784 -0.834250 
0.692630 -0.007396 -0.955261 
0.534577 -0.008155 -1.052885 
0.363393 -0.009479 -1.125035 
0.182539 -0.010536 -1.169911 
-0.187955 -0.012170 -1.172176 
-0.368912 -0.012182 -1.130040 
-0.541406 -0.012312 -1.059272 
-0.700560 -0.011724 -0.962149 
-0.841840 -0.011331 -0.841642 
-0.962278 -0.010063 -0.700217 
-1.058496 -0.009419 -0.541323 
-1.128978 -0.007944 -0.368792 
-1.171623 -0.006754 -0.187878 
0.803231 -0.404900 -0.412319 
0.408870 -0.821132 -0.453785 
0.384392 -0.396968 -0.834783 
0.875789 -0.303017 -0.333206 
0.289040 -0.926255 -0.348960 
0.668063 -0.348371 -0.644070 
0.547265 -0.650865 -0.544430 
0.853602 -0.484914 -0.112226 
0.173275 -0.649047 -0.771891 
0.599236 -0.183520 -0.760399 
0.856172 -0.160882 -0.452217 
0.199380 -0.887309 -0.495067 
0.935785 -0.138459 -0.260346 
0.787842 -0.301301 -0.511849 
0.671406 -0.659222 -0.349017 
0.455715 -0.886414 -0.214061 
0.618003 -0.773438 -0.184168 
0.515884 -0.495967 -0.703031 
0.780708 -0.149632 -0.576185 
0.547842 -0.774819 -0.357271 
0.968235 -0.119598 -0.109959 
0.758288 -0.626507 -0.157974 
0.145557 -0.984042 -0.294194 
0.920723 -0.307526 -0.158387 
0.722530 -0.481971 -0.486144 
0.261465 -0.980865 -0.167815 
0.537860 -0.315811 -0.772504 
0.325857 -0.733503 -0.634783 
0.818570 -0.476835 -0.290833 
0.486438 -0.195676 -0.836984 
0.140414 -0.792120 -0.648191 
0.187610 -0.506105 -0.857392 
0.169563 -0.339590 -0.927223 
0.342747 -0.580569 -0.756904 
0.626108 -0.497113 -0.599774 
0.117515 -1.017305 -0.142197 
0.438868 -0.624620 -0.665665 
0.320181 -0.233199 -0.910109 
0.197585 -0.150210 -0.957964 
0.495699 0.584593 -0.616284 
0.504530 0.799725 -0.340930 
0.796449 0.376316 -0.438283 
0.393412 0.464137 -0.762690 
0.353745 0.905942 -0.284044 
0.284085 0.303004 -0.880053 
0.164529 0.149663 -0.950722 
0.746755 0.213705 -0.593256 
0.664454 0.542450 -0.488657 
0.506331 0.871273 -0.153507 
0.588587 0.168937 -0.758972 
0.186695 0.890913 -0.421773 
0.165555 0.466599 -0.837810 
0.552543 0.692890 -0.451914 
0.157000 0.976837 -0.238347 
0.380304 0.128057 -0.889687 
0.120136 0.310929 -0.914214 
0.623707 0.717185 -0.318458 
0.114652 0.621135 -0.746280 
0.168810 0.757989 -0.610357 
0.298253 0.623574 -0.695660 
0.849778 0.499603 -0.157666 
0.598260 0.391162 -0.666669 
0.375594 0.775218 -0.498557 
0.754261 0.564259 -0.320347 
0.132049 1.014398 -0.093700 
0.295074 0.974346 -0.122463 
0.706998 0.710400 -0.133022 
0.930993 0.150734 -0.275329 
0.462959 0.298226 -0.802788 
0.844526 0.417938 -0.301980 
0.860711 0.171254 -0.435829 
0.927145 0.301682 -0.166005 
0.882316 0.288682 -0.327779 
0.967317 0.135236 -0.124175 
0.713398 0.385061 -0.551385 
0.465534 0.489236 0.766031 
0.461575 0.843482 0.399711 
0.830355 0.434321 0.379753 
0.335761 0.339018 0.889346 
0.312873 0.945501 0.314576 
0.900462 0.356042 0.262161 
0.952143 0.181939 0.213869 
0.557975 0.665696 0.556678 
0.114972 0.509918 0.875873 
0.747971 0.186269 0.635809 
0.442392 0.181893 0.877136 
0.437405 0.921095 0.200182 
0.862318 0.493279 0.177887 
0.263244 0.162838 0.947119 
0.262042 0.994062 0.160232 
0.930698 0.337376 0.131148 
0.610585 0.180606 0.770562 
0.516942 0.316348 0.806320 
0.325352 0.663566 0.721879 
0.776504 0.645230 0.127169 
0.673774 0.753075 0.184520 
0.592774 0.523874 0.648059 
0.201408 0.792234 0.644265 
0.761964 0.604524 0.309850 
0.635563 0.717782 0.380606 
0.398002 0.756883 0.589865 
0.559623 0.837836 0.238628 
0.118203 1.022871 0.141611 
0.115460 0.143464 0.976208 
0.472252 0.627942 0.667034 
0.158276 0.646618 0.786686 
0.705985 0.534722 0.507799 
0.643441 0.375236 0.685551 
0.162147 0.333976 0.936298 
0.174015 0.989090 0.287017 
0.782276 0.342208 0.535717 
0.833076 0.158396 0.523188 
0.225376 0.905946 0.470972 
0.880244 0.251650 0.402293 
0.262356 0.506482 0.847189 
0.500707 -0.793265 0.325802 
0.323884 -0.360371 0.845803 
0.318855 -0.883533 0.341574 
0.146486 -0.455229 0.847973 
0.506644 -0.143213 0.828413 
0.417079 -0.898697 0.172435 
0.594250 -0.539991 0.559611 
0.264376 -0.158957 0.929446 
0.220138 -0.977436 0.162568 
0.895616 -0.371064 0.156797 
0.754642 -0.392698 0.484678 
0.723851 -0.664084 0.130819 
0.854405 -0.177759 0.450684 
0.938679 -0.173704 0.231170 
0.498188 -0.309595 0.781288 
0.553999 -0.675374 0.453121 
0.598958 -0.782970 0.150035 
0.693675 -0.637974 0.290985 
[...]
POINT_DATA 1108
SCALARS u float 1
LOOKUP_TABLE default
0.018182
0.017917
0.036916
0.036775
0.023536
0.023081
0.016231
0.015997
0.032622
0.032629
0.018695
0.018631
0.017730
0.019301
0.023354
0.028512
0.033936
0.037226
0.038287
0.032992
0.027970
0.022229
0.018378
0.017612
0.017847
0.018024
0.017480
0.019239
0.023423
0.028688
0.034088
0.037498
0.038241
0.032802
0.027679
0.022064
0.018469
0.017488
0.017874
0.018048
0.025875
0.027357
0.026520
0.023952
0.022352
0.024888
0.030224
0.041765
0.044069
0.042346
0.037743
0.031705
0.025724
0.022452
0.025781
0.027191
0.026817
0.024287
0.022469
0.024740
0.030134
0.042345
0.044895
0.042916
0.038073
0.032043
0.026050
0.022754
0.017822
0.018128
0.019045
0.019858
0.020690
0.022001
0.022883
0.023861
0.023642
0.023931
0.023406
0.022283
0.020571
0.018853
0.017589
0.017898
0.018811
0.019781
0.020824
0.021869
0.022507
0.023371
0.023507
0.023535
0.022808
0.021864
0.020195
0.018794
0.014742
0.012744
0.013464
0.017403
0.022806
0.027984
0.032422
0.034240
0.034586
0.029534
0.024919
0.019698
0.015146
0.012784
0.013315
0.015611
0.016963
0.017460
0.014599
0.012890
0.013542
0.017433
0.023326
0.028264
0.032694
0.034815
0.034719
0.029198
0.024589
0.019395
0.015011
0.012741
0.013287
0.015556
0.016972
0.017559
0.038091
0.041618
0.042274
0.038858
0.033771
0.028072
0.021521
0.016281
0.015608
0.022475
0.025594
0.026656
0.024441
0.020453
0.016705
0.015301
0.019102
0.026127
0.038417
0.041971
0.042274
0.039419
0.034171
0.028354
0.021661
0.016358
0.015592
0.022790
0.025746
0.026377
0.023770
0.020022
0.016614
0.015405
0.019361
0.026290
0.017368
0.018877
0.020594
0.021207
0.021392
0.021689
0.021213
0.020736
0.019445
0.017811
0.017082
0.016433
0.015885
0.014758
0.014163
0.014755
0.014897
0.015372
0.017575
0.018848
0.020255
0.020775
0.020890
0.021411
0.020910
0.020212
0.019298
0.017845
0.016677
0.016179
0.015347
0.014851
0.014160
0.014679
0.014774
0.015188
0.017787
0.030861
0.022050
0.018159
0.035648
0.019551
0.023551
0.017361
0.031465
0.021258
0.019970
0.038699
0.019054
0.019085
0.020402
0.028345
0.021708
0.021721
0.020903
0.025196
0.018325
0.017782
0.039926
0.017734
0.018378
0.034420
0.020489
0.031109
0.017791
0.021498
0.037251
0.026710
0.023228
0.026083
0.020118
0.037778
0.025310
0.021705
0.022284
0.023287
0.023957
0.021169
0.025977
0.027176
0.026932
0.025865
0.023157
0.021487
0.029884
0.025043
0.023941
0.027338
0.021796
0.029164
0.025390
0.027132
0.022683
0.025784
0.023122
0.024561
0.020326
0.024326
0.022715
0.020493
0.034113
0.033192
0.025210
0.019419
0.026604
0.019659
0.021191
0.018950
0.019766
0.018625
0.022790
0.030478
0.042739
0.023641
0.025198
0.044961
0.020098
0.017595
0.036169
0.030230
0.020181
0.022171
0.041306
0.022903
0.022478
0.042274
0.018635
0.021210
0.024521
0.037465
0.027479
0.033292
0.030630
0.042682
0.029185
0.035979
0.041040
0.038716
0.041609
0.022368
0.035702
0.036113
0.029371
0.025240
0.024830
0.045010
0.022644
0.019030
0.045743
0.019444
0.030802
0.020169
0.025564
0.021864
0.026601
0.022458
0.022785
0.022347
0.024307
0.027359
0.018608
0.021101
0.017899
0.019508
0.018474
0.023880
0.021200
0.019220
0.019172
0.024565
0.026243
0.022220
0.023157
0.021351
0.018383
0.022630
0.021082
0.021652
0.024206
0.021012
0.019166
0.023038
0.023036
0.024883
0.025343
0.021966
0.023717
0.019671
0.032018
0.023683
0.024254
0.021213
0.025955
0.027452
0.027542
0.025537
0.023653
0.021801
0.030156
0.025525
0.024018
0.027264
0.022291
0.029442
0.025662
0.027269
0.022966
0.025443
0.023098
0.024531
0.020343
0.024525
0.022813
0.020707
0.034227
0.033475
0.025332
0.019621
0.026521
0.019764
0.021162
0.018672
0.019932
0.018314
0.023041
0.030132
0.042597
0.023617
0.025159
0.045227
0.020113
0.017428
0.036201
0.029669
0.019909
0.022116
0.041483
0.022891
0.022161
0.042598
0.018521
0.020904
0.024289
0.037179
0.027721
0.033225
0.030466
0.042051
0.029276
0.035765
0.041017
0.038779
0.041441
0.022047
0.035459
0.035851
0.029359
0.025211
0.024543
0.044692
0.022484
0.018691
0.045545
0.019257
0.030657
0.020132
0.025439
0.021960
0.026964
0.022381
0.022945
0.022128
0.023959
0.027464
0.018473
0.020886
0.017774
0.019359
0.018261
0.023821
0.020986
0.019193
0.019045
0.024192
0.025996
0.022414
0.023171
0.021419
0.018281
0.022541
0.020937
0.021740
0.023998
0.020760
0.019107
0.022786
0.023273
0.025504
0.025504
0.021815
0.023519
0.019530
0.032170
0.018026
0.031090
0.022252
0.018146
0.036362
0.019819
0.023781
0.017489
0.031909
0.021595
0.020341
0.038717
0.019217
0.019424
0.020579
0.028535
0.021808
0.021895
0.021317
0.025441
0.018323
0.017893
0.040378
0.017933
0.018560
0.034779
0.020685
0.031451
0.017737
0.021753
0.037785
0.027079
0.023561
0.026425
0.020286
0.038121
0.025577
0.021971
0.022628
0.016831
0.022266
0.023913
0.018059
0.015262
0.017964
0.018257
0.023296
0.017828
0.023669
0.021773
0.019817
0.020098
0.024022
0.017505
0.015482
0.019074
0.025727
0.014070
0.017282
0.015372
0.014314
0.017027
0.016041
0.025201
0.020030
0.017090
0.018398
0.016424
0.022087
0.023613
0.022037
0.022744
0.020778
0.021459
0.014786
0.019281
0.016821
0.018677
0.021549
0.024761
0.017972
0.022120
0.019648
0.016536
0.018763
0.014472
0.014868
0.013156
0.017731
0.014042
0.019886
0.017623
0.026865
0.017095
0.019061
0.020963
0.022549
0.013510
0.019871
0.025005
0.019597
0.014868
0.021150
0.026112
0.021082
0.015003
0.023635
0.016303
0.025684
0.030036
0.014586
0.023037
0.022926
0.018501
0.023184
0.015408
0.021039
0.023827
0.025335
0.013704
0.016966
0.024164
0.013351
0.018451
0.018881
0.026577
0.017127
0.027682
0.012850
0.024644
0.017188
0.024140
0.021029
0.022478
0.019813
0.017832
0.016587
0.015703
0.017985
0.022295
0.024810
0.024329
0.021675
0.023266
0.015481
0.020573
0.017151
0.018089
0.017156
0.017301
0.021124
0.013735
0.015185
0.016796
0.015990
0.029834
0.016802
0.019947
0.025707
0.022039
0.023584
0.025930
0.022504
0.020362
0.034580
0.043163
0.017244
0.013267
0.015620
0.012379
0.042663
0.015440
0.013829
0.040396
0.028332
0.035152
0.041070
0.018523
0.027189
0.034647
0.043000
0.016053
0.017440
0.014589
0.012850
0.013011
0.018576
0.044508
0.027952
0.014896
0.012884
0.013108
0.015270
0.039401
0.038026
0.034060
0.029942
0.032495
0.018653
0.022718
0.023133
0.033312
0.042888
0.035526
0.038915
0.029318
0.028565
0.021742
0.021417
0.015451
0.014497
0.013748
0.016048
0.013423
0.023437
0.026132
0.014541
0.016083
0.030882
0.026409
0.040504
0.013443
0.038150
0.043235
0.038262
0.013760
0.019196
0.030289
0.014665
0.017034
0.015386
0.017183
0.017306
0.018195
0.027059
0.012728
0.032117
0.018046
0.022643
0.013051
0.038359
0.019677
0.015556
0.014527
0.018049
0.018936
0.016296
0.016270
0.026121
0.014340
0.017395
0.018785
0.015249
0.017652
0.024927
0.037842
0.029845
0.025559
0.017309
0.015090
0.018767
0.014147
0.015700
0.029738
0.012537
0.032793
0.023034
0.034203
0.014268
0.020406
0.012413
0.016298
0.014914
0.016488
0.018989
0.015219
0.017176
0.015126
0.013358
0.017574
0.017025
0.013182
0.020068
0.032591
0.019750
0.035774
0.034361
0.031211
0.027861
0.018680
0.013704
0.042232
0.012265
0.042448
0.013001
0.038721
0.037869
0.014987
0.015250
0.030579
0.042519
0.012973
0.026096
0.014106
0.036704
0.024207
0.017990
0.034771
0.043924
0.012926
0.014640
0.030044
0.013145
0.039307
0.041295
0.013687
0.023397
0.019097
0.015650
0.020333
0.031706
0.033108
0.024727
0.041023
0.018189
0.038295
0.013561
0.016699
0.025438
0.013930
0.033362
0.015415
0.042072
0.013122
0.043406
0.030789
0.024293
0.016677
0.039622
0.036552
0.024942
0.037307
0.014316
0.019680
0.037917
0.015142
0.028725
0.015170
0.016204
0.013690
0.019088
0.030566
0.014608
0.016865
0.015274
0.017035
0.032563
0.017071
0.018158
0.034370
0.026675
0.013225
0.031734
0.022296
0.012948
0.037060
0.019415
0.015269
0.014477
0.017839
0.018524
0.016182
0.016140
0.036835
0.014344
0.017149
0.018490
0.015185
0.017597
0.023992
0.025199
0.017160
0.015080
0.018625
0.013946
0.015667
0.029326
0.012622
0.031854
0.018324
0.033632
0.014438
0.020145
0.012470
0.016184
0.014848
0.016288
0.018661
0.015129
0.016836
0.015115
0.013327
0.017682
0.016956
0.019839
0.013221
0.025687
0.019474
0.038656
0.025286
0.028912
0.016992
0.022421
0.023908
0.018228
0.015151
0.018155
0.018179
0.018001
0.023540
0.019723
0.019861
0.021185
0.023605
0.017611
0.015387
0.019301
0.025312
0.014193
0.017490
0.015418
0.014233
0.017157
0.016098
0.020670
0.020254
0.017185
0.018160
0.016577
0.022130
0.023939
0.025412
0.019951
0.022093
0.022671
0.020873
0.021661
0.014813
0.019433
0.016802
0.018597
0.022295
0.024799
0.017716
0.021990
0.019815
0.016416
0.018904
0.014456
0.014950
0.013203
0.017807
0.014002
0.020088
0.017765
0.026804
0.017315
0.021138
0.018974
0.022853
0.013596
0.022744
0.020476
0.018704
0.017473
0.017349
0.019753
0.025765
0.024026
0.025372
0.016083
0.024838
0.024434
0.016118
0.016441
0.024056
0.021465
0.024046
0.024445
0.013564
0.021366
0.023039
0.015686
0.015435
0.025222
0.028464
0.023855
0.019352
0.017987
0.018612
0.026497
0.030183
0.023043
0.016642
0.014560
0.020870
0.020483
0.015385
0.025127
0.016159
0.022174
0.023252
0.013917
0.019839
0.017386
0.023245
0.018084
0.024974
0.021169
0.025738
0.018190
0.021185
0.016307
0.025885
0.015370
0.022203
0.022020
0.029940
0.023043
0.015002
0.014237
0.017797
0.013091
0.018208
0.014217
0.025375
0.021364
0.019860
0.018749
0.020688
0.024573
0.025888
0.031291
0.012537
0.022038
0.040440
0.029934
0.018695
0.028187
0.013660
0.015427
0.019954
0.027002
0.027019
0.017077
0.032797
0.035119
0.041600
0.033770
0.019491
0.019612
0.023836
0.018902
0.020180
0.023130
0.024615
0.024273
0.026762
0.022545
0.025496
0.024994
0.022841
0.038552
0.020287
0.033624
0.021374
0.024865
0.018906
0.024277
0.044439
0.030807
0.042686
0.040974
0.025638
0.035643
0.029833
0.040419
0.029887
0.024056
0.025672
0.026748
0.025543
0.025892
0.019833
0.024806
0.019214
0.024256
0.024939
0.029366
0.022076
0.029556
0.025330
0.026374
0.040296
0.023911
0.026642
0.020926
0.026367
0.030532
0.044116
0.036070
0.031078
0.029460
0.036402
0.024640
0.025412
0.025961
0.021632
0.021665
0.022713
0.019103
0.026088
0.023363
0.032834
0.032936
0.036015
0.026505
0.018343
0.024096
0.025245
0.035652
0.030337
0.025179
0.040179
0.021336
0.014313
0.008267
