# vtk DataFile Version 2.0
Unstructured Grid Example
ASCII
DATASET UNSTRUCTURED_GRID
POINTS 1108 float
1.003167 0.004105 -0.000674 
-1.003117 -0.004047 0.000633 
0.004088 0.995755 0.001118 
-0.004086 -0.995727 -0.001129 
-0.000669 0.001089 1.001248 
0.000684 -0.001132 -1.001098 
1.202973 0.002712 -0.000447 
-1.202970 -0.002740 0.000420 
0.002708 1.195988 0.000698 
-0.002765 -1.195951 -0.000737 
-0.000433 0.000726 1.201170 
0.000426 -0.000703 -1.201092 
0.985323 0.198896 -0.000416 
0.929370 0.386214 -0.000202 
0.837345 0.558606 0.000010 
0.712811 0.709369 0.000297 
0.560792 0.832417 0.000554 
0.387393 0.923151 0.000769 
0.199360 0.978294 0.000947 
-0.191066 0.975227 0.001211 
-0.378669 0.917363 0.001282 
-0.551912 0.824630 0.001279 
-0.704134 0.700629 0.001229 
-0.829563 0.549742 0.001154 
-0.923556 0.377583 0.001023 
-0.982212 0.190616 0.000848 
-0.985255 -0.198863 0.000393 
-0.929326 -0.386192 0.000220 
-0.837231 -0.558569 -0.000035 
-0.712707 -0.709380 -0.000314 
-0.560764 -0.832475 -0.000548 
-0.387411 -0.923229 -0.000758 
-0.199396 -0.978281 -0.000972 
0.191030 -0.975203 -0.001241 
0.378642 -0.917388 -0.001301 
0.551885 -0.824619 -0.001309 
0.704073 -0.700626 -0.001251 
0.829560 -0.549737 -0.001167 
0.923511 -0.377537 -0.001053 
0.982194 -0.190562 -0.000888 
-0.001484 -0.193486 0.981558 
-0.002199 -0.380489 0.924006 
-0.002858 -0.552649 0.830932 
-0.003375 -0.703508 0.706060 
-0.003778 -0.827234 0.554258 
-0.004021 -0.919303 0.381278 
-0.004188 -0.976286 0.193838 
-0.003873 -0.977123 -0.196126 
-0.003518 -0.921024 -0.383733 
-0.002998 -0.829520 -0.556713 
-0.002371 -0.705924 -0.708424 
-0.001703 -0.555088 -0.832976 
-0.000916 -0.382817 -0.925442 
-0.000091 -0.195782 -0.982223 
0.001434 0.193540 -0.981461 
0.002173 0.380507 -0.923877 
0.002839 0.552682 -0.830942 
0.003337 0.703549 -0.706099 
0.003733 0.827270 -0.554280 
0.003984 0.919337 -0.381301 
0.004149 0.976288 -0.193851 
0.003846 0.977117 0.196079 
0.003497 0.921003 0.383661 
0.003023 0.829421 0.556713 
0.002386 0.705876 0.708411 
0.001759 0.555068 0.832960 
0.000959 0.382769 0.925504 
0.000113 0.195713 0.982303 
0.983578 0.004206 0.194709 
0.926187 0.004196 0.382606 
0.833296 0.003960 0.555756 
0.708385 0.003648 0.707468 
0.556339 0.003208 0.832011 
0.382987 0.002539 0.924636 
0.194923 0.001785 0.981777 
-0.196218 0.000223 0.982302 
-0.384423 -0.000509 0.925628 
-0.557760 -0.001405 0.833290 
-0.709690 -0.002066 0.708883 
-0.834430 -0.002749 0.557190 
-0.927099 -0.003298 0.384004 
-0.984062 -0.003732 0.196050 
-0.983567 -0.004167 -0.194752 
-0.926202 -0.004189 -0.382649 
-0.833323 -0.003925 -0.555797 
-0.708415 -0.003629 -0.707487 
-0.556408 -0.003144 -0.831968 
-0.382965 -0.002457 -0.924547 
-0.194863 -0.001787 -0.981627 
0.196278 -0.000318 -0.982239 
0.384359 0.000518 -0.925560 
0.557751 0.001372 -0.833249 
0.709739 0.002082 -0.708894 
0.834500 0.002761 -0.557208 
0.927119 0.003361 -0.384031 
0.984062 0.003811 -0.196114 
1.189524 0.190487 -0.000327 
1.146462 0.373789 -0.000181 
1.074791 0.547960 -0.000038 
0.976216 0.708448 0.000098 
0.853422 0.851185 0.000169 
0.709610 0.972621 0.000344 
0.548381 1.069786 0.000448 
0.373831 1.140327 0.000544 
0.190428 1.182688 0.000656 
-0.184789 1.179915 0.000762 
-0.367566 1.135053 0.000859 
-0.541098 1.062584 0.000854 
-0.701599 0.964527 0.000905 
-0.845194 0.842931 0.000814 
-0.968169 0.700451 0.000757 
-1.067639 0.540725 0.000723 
-1.141172 0.367487 0.000645 
-1.186735 0.184839 0.000564 
-1.189446 -0.190445 0.000318 
-1.146404 -0.373704 0.000138 
-1.074728 -0.547936 0.000020 
-0.976137 -0.708354 -0.000103 
-0.853466 -0.851097 -0.000181 
-0.709653 -0.972608 -0.000369 
-0.548407 -1.069836 -0.000454 
-0.373840 -1.140370 -0.000565 
-0.190430 -1.182670 -0.000633 
0.184781 -1.179922 -0.000777 
0.367526 -1.135060 -0.000856 
0.541084 -1.062578 -0.000876 
0.701580 -0.964517 -0.000913 
0.845163 -0.842896 -0.000830 
0.968126 -0.700418 -0.000769 
1.067608 -0.540685 -0.000737 
1.141129 -0.367463 -0.000657 
1.186718 -0.184843 -0.000577 
-0.002625 -1.181673 -0.188206 
-0.002449 -1.138395 -0.371236 
-0.002220 -1.067081 -0.545273 
-0.001991 -0.969422 -0.705989 
-0.001593 -0.847750 -0.849470 
-0.001168 -0.705050 -0.972010 
-0.000808 -0.544894 -1.070606 
-0.000406 -0.371150 -1.142774 
-0.000041 -0.188161 -1.186652 
0.000913 0.186669 -1.185860 
0.001267 0.369559 -1.141371 
0.001619 0.542971 -1.068732 
0.001931 0.702975 -0.969805 
0.002178 0.845502 -0.847224 
0.002513 0.967192 -0.703786 
0.002596 1.065023 -0.543251 
0.002690 1.136885 -0.369550 
0.002751 1.180868 -0.186701 
0.002628 1.181683 0.188226 
0.002453 1.138375 0.371208 
0.002211 1.066933 0.545331 
0.002037 0.969316 0.705979 
0.001623 0.847700 0.849431 
0.001098 0.705043 0.972029 
0.000817 0.544891 1.070606 
0.000425 0.371160 1.142820 
0.000044 0.188199 1.186726 
-0.000876 -0.186806 1.185985 
-0.001265 -0.369520 1.141449 
-0.001652 -0.543009 1.068739 
-0.001946 -0.702967 0.969809 
-0.002174 -0.845478 0.847190 
-0.002533 -0.967164 0.703765 
-0.002615 -1.064984 0.543231 
-0.002710 -1.136864 0.369548 
-0.002766 -1.180862 0.186691 
-1.188357 -0.002553 0.188536 
-1.144420 -0.002383 0.371952 
-1.072196 -0.002074 0.546211 
-0.973573 -0.001831 0.706922 
-0.850907 -0.001372 0.850270 
-0.707281 -0.000972 0.972742 
-0.546473 -0.000596 1.071096 
-0.371954 -0.000159 1.142888 
-0.188485 0.000257 1.186622 
0.187596 0.001150 1.186181 
0.370950 0.001576 1.142082 
0.545203 0.001896 1.069886 
0.706032 0.002103 0.971418 
0.849572 0.002439 0.849037 
0.972262 0.002685 0.705768 
1.071149 0.002723 0.545052 
1.143592 0.002799 0.370964 
1.187890 0.002799 0.187587 
1.188396 0.002549 -0.188545 
1.144470 0.002374 -0.371982 
1.072287 0.002069 -0.546232 
0.973631 0.001798 -0.706948 
0.850918 0.001375 -0.850313 
0.707248 0.001012 -0.972739 
0.546449 0.000566 -1.071016 
0.372022 0.000133 -1.142820 
0.188420 -0.000163 -1.186569 
-0.187603 -0.001111 -1.186064 
-0.370939 -0.001656 -1.141931 
-0.545166 -0.001884 -1.069845 
-0.705956 -0.002200 -0.971436 
-0.849574 -0.002418 -0.849063 
-0.972281 -0.002653 -0.705790 
-1.071174 -0.002691 -0.545074 
-1.143610 -0.002772 -0.370978 
-1.187882 -0.002782 -0.187596 
0.818880 -0.392574 -0.415944 
0.414642 -0.788908 -0.443824 
0.394146 -0.375819 -0.839450 
0.893822 -0.294361 -0.337982 
0.293203 -0.889623 -0.335599 
0.682663 -0.332978 -0.650819 
0.556271 -0.626309 -0.540838 
0.868932 -0.475499 -0.109614 
0.179149 -0.617870 -0.765060 
0.614337 -0.169435 -0.772953 
0.875728 -0.152956 -0.461929 
0.203916 -0.848618 -0.481448 
0.956147 -0.134508 -0.267187 
0.804811 -0.289296 -0.518903 
0.681635 -0.638625 -0.344598 
0.460814 -0.856288 -0.202729 
0.626124 -0.751077 -0.175966 
0.526441 -0.474501 -0.704530 
0.799296 -0.139421 -0.588005 
0.554983 -0.747980 -0.349437 
0.988143 -0.118696 -0.114490 
0.770030 -0.611240 -0.153094 
0.149168 -0.944106 -0.278535 
0.938982 -0.302035 -0.160163 
0.735843 -0.465752 -0.487946 
0.265082 -0.945498 -0.153370 
0.550558 -0.298585 -0.780731 
0.332154 -0.701757 -0.626605 
0.833621 -0.463930 -0.291058 
0.499573 -0.179951 -0.849480 
0.145423 -0.755577 -0.636425 
0.194342 -0.479566 -0.856349 
0.176931 -0.317595 -0.932966 
0.350472 -0.554010 -0.754186 
0.637999 -0.477885 -0.601593 
0.120653 -0.979440 -0.126351 
0.447100 -0.598520 -0.662152 
0.330066 -0.215060 -0.920866 
0.205778 -0.132725 -0.971259 
0.506376 0.583453 -0.639426 
0.509748 0.784843 -0.359661 
0.813616 0.375204 -0.456664 
0.404228 0.468549 -0.788022 
0.355480 0.884839 -0.302002 
0.293727 0.312643 -0.904949 
0.171948 0.162813 -0.972834 
0.765649 0.218632 -0.612483 
0.677781 0.539449 -0.509020 
0.508156 0.847436 -0.170551 
0.605164 0.177650 -0.780526 
0.187971 0.875158 -0.440952 
0.171980 0.473321 -0.863808 
0.561321 0.684762 -0.472068 
0.156263 0.951257 -0.255453 
0.392413 0.139750 -0.911686 
0.125938 0.321293 -0.938918 
0.631580 0.704650 -0.336665 
0.118720 0.622910 -0.771266 
0.172026 0.752742 -0.632721 
0.305445 0.623703 -0.720088 
0.862691 0.489305 -0.171860 
0.613540 0.394997 -0.689563 
0.381079 0.765849 -0.519565 
0.766691 0.556536 -0.337704 
0.129941 0.982465 -0.110175 
0.294044 0.945004 -0.139425 
0.713551 0.692632 -0.148682 
0.951237 0.150441 -0.286929 
0.476766 0.306029 -0.827475 
0.860592 0.413225 -0.317754 
0.881003 0.173591 -0.451257 
0.944793 0.296281 -0.178049 
0.901079 0.287017 -0.342402 
0.987125 0.132289 -0.132755 
0.730182 0.386550 -0.572193 
0.464042 0.461861 0.760446 
0.457347 0.806063 0.384203 
0.836513 0.415396 0.373082 
0.334442 0.315672 0.890805 
0.308302 0.904795 0.297226 
0.910701 0.341513 0.255892 
0.967018 0.172609 0.210137 
0.555807 0.634498 0.545236 
0.110370 0.481213 0.871691 
0.755462 0.170123 0.637682 
0.443927 0.162700 0.883466 
0.433863 0.884659 0.183832 
0.870516 0.476269 0.168314 
0.262442 0.143396 0.955953 
0.258419 0.955061 0.143144 
0.943603 0.326047 0.123548 
0.615271 0.162795 0.774507 
0.517993 0.294258 0.806915 
0.321334 0.629796 0.710883 
0.781123 0.623865 0.114629 
0.674435 0.725782 0.170537 
0.592517 0.497296 0.640649 
0.196402 0.753066 0.629881 
0.764958 0.580925 0.298870 
0.634316 0.687515 0.367677 
0.393683 0.720648 0.575942 
0.557203 0.804871 0.223261 
0.114517 0.983156 0.124624 
0.112505 0.124768 0.987323 
0.469349 0.596638 0.656648 
0.153398 0.613111 0.777029 
0.707647 0.509940 0.499708 
0.645848 0.353223 0.682709 
0.158929 0.310462 0.939314 
0.169622 0.946917 0.269527 
0.788058 0.323358 0.532743 
0.843012 0.144487 0.524393 
0.220131 0.863953 0.454206 
0.890483 0.237241 0.399753 
0.258790 0.477831 0.842340 
0.507903 -0.781250 0.339965 
0.327835 -0.369014 0.866798 
0.323264 -0.867413 0.357421 
0.147232 -0.462250 0.871667 
0.513066 -0.155060 0.843401 
0.422461 -0.877831 0.186072 
0.604255 -0.541226 0.575064 
0.265885 -0.172063 0.948100 
0.223543 -0.950923 0.177666 
0.912351 -0.368845 0.161700 
0.767833 -0.395757 0.496196 
0.735078 -0.653487 0.139666 
0.869015 -0.184266 0.457711 
0.956080 -0.177024 0.233754 
0.505564 -0.318307 0.798731 
0.563175 -0.670361 0.468301 
0.607287 -0.767807 0.161084 
0.704845 -0.631196 0.302318 
[...]
POINT_DATA 1108
SCALARS u float 1
LOOKUP_TABLE default
0.005228
0.005147
0.005998
0.006019
0.001786
0.001719
0.004049
0.004062
0.004890
0.004958
0.001443
0.001366
0.005937
0.006531
0.006613
0.006144
0.005336
0.004827
0.005033
0.006969
0.007760
0.007861
0.007233
0.006239
0.005212
0.004772
0.005862
0.006482
0.006495
0.006052
0.005319
0.004832
0.005075
0.007014
0.007757
0.007889
0.007264
0.006248
0.005266
0.004825
0.002318
0.003109
0.004122
0.005044
0.005825
0.006252
0.006273
0.005430
0.004651
0.003754
0.002959
0.002324
0.001816
0.001598
0.002217
0.003075
0.004084
0.004981
0.005765
0.006198
0.006243
0.005406
0.004633
0.003826
0.002984
0.002360
0.001888
0.001644
0.005064
0.004790
0.004365
0.003882
0.003343
0.002666
0.002049
0.001903
0.002518
0.003176
0.003755
0.004352
0.004795
0.005058
0.005022
0.004790
0.004347
0.003876
0.003292
0.002562
0.001989
0.001904
0.002429
0.003131
0.003803
0.004415
0.004859
0.005130
0.005121
0.005985
0.006421
0.006227
0.005571
0.004645
0.003667
0.003200
0.003768
0.006114
0.007068
0.007630
0.007378
0.006566
0.005615
0.004416
0.003396
0.003302
0.005033
0.005892
0.006355
0.006112
0.005569
0.004681
0.003701
0.003200
0.003778
0.006114
0.007080
0.007645
0.007397
0.006613
0.005665
0.004465
0.003424
0.003293
0.004444
0.003798
0.003112
0.002518
0.002008
0.001693
0.001618
0.001594
0.001493
0.001531
0.001791
0.002480
0.003220
0.003949
0.004680
0.005159
0.005297
0.005254
0.004440
0.003812
0.003218
0.002611
0.002034
0.001660
0.001623
0.001645
0.001575
0.001477
0.001823
0.002473
0.003233
0.003977
0.004719
0.005206
0.005325
0.005269
0.004121
0.004110
0.003906
0.003664
0.003252
0.002897
0.002599
0.001984
0.001612
0.001500
0.001779
0.002056
0.002292
0.002701
0.003078
0.003355
0.003641
0.003867
0.004150
0.004152
0.003981
0.003703
0.003284
0.002888
0.002519
0.001967
0.001522
0.001397
0.001788
0.002024
0.002366
0.002688
0.003061
0.003345
0.003632
0.003848
0.004314
0.005361
0.002233
0.004360
0.005923
0.003306
0.004452
0.005553
0.002695
0.002984
0.004180
0.004744
0.004648
0.003857
0.005654
0.007089
0.007017
0.003096
0.003808
0.006049
0.004820
0.006234
0.005765
0.004786
0.004277
0.006820
0.002678
0.003889
0.004976
0.002564
0.003502
0.002001
0.001635
0.002849
0.003658
0.006317
0.003535
0.001937
0.001717
0.004434
0.004933
0.005788
0.003664
0.004802
0.002843
0.002178
0.004869
0.005351
0.005085
0.003848
0.005076
0.003357
0.005001
0.005431
0.002752
0.002714
0.005497
0.004115
0.004615
0.003895
0.006601
0.004556
0.004489
0.006065
0.005464
0.004919
0.006086
0.005593
0.003550
0.006226
0.005399
0.006290
0.005977
0.005709
0.005283
0.003813
0.004736
0.005949
0.002838
0.004449
0.006059
0.005642
0.004872
0.002426
0.004432
0.002959
0.004807
0.006501
0.002217
0.004689
0.006284
0.003717
0.003548
0.003527
0.006386
0.005905
0.004706
0.003397
0.006081
0.005571
0.004159
0.005291
0.005147
0.001830
0.004229
0.002860
0.005448
0.004482
0.002150
0.004588
0.005218
0.004765
0.004010
0.005368
0.002858
0.008154
0.004120
0.007902
0.004056
0.003470
0.008222
0.006494
0.002780
0.007602
0.005456
0.005670
0.007226
0.004691
0.004881
0.004382
0.007454
0.008045
0.007308
0.002136
0.002964
0.006603
0.007102
0.007513
0.006295
0.006897
0.004374
0.007452
0.005708
0.006707
0.006171
0.005189
0.006635
0.005345
0.005217
0.003915
0.003388
0.005322
0.006806
0.004461
0.004933
0.005639
0.003666
0.004811
0.002918
0.002231
0.004837
0.005327
0.005084
0.003876
0.005116
0.003361
0.004937
0.005447
0.002809
0.002711
0.005436
0.004143
0.004657
0.003948
0.006507
0.004556
0.004536
0.006083
0.005499
0.004927
0.005980
0.005507
0.003575
0.006152
0.005291
0.006183
0.005846
0.005647
0.005227
0.003780
0.004744
0.005942
0.002741
0.004389
0.006063
0.005611
0.004833
0.002361
0.004453
0.002868
0.004792
0.006381
0.002165
0.004715
0.006241
0.003739
0.003539
0.003537
0.006301
0.005795
0.004648
0.003417
0.006103
0.005538
0.004147
0.005276
0.005162
0.001751
0.004224
0.002832
0.005379
0.004463
0.002088
0.004556
0.005204
0.004783
0.003993
0.005433
0.002876
0.008088
0.004061
0.007823
0.003946
0.003443
0.008171
0.006426
0.002680
0.007557
0.005407
0.005623
0.007185
0.004657
0.004841
0.004334
0.007383
0.008007
0.007235
0.002038
0.002893
0.006525
0.007026
0.007449
0.006254
0.006810
0.004335
0.007370
0.005609
0.006647
0.006119
0.005137
0.006565
0.005294
0.005147
0.003904
0.003329
0.005274
0.006773
0.004297
0.005434
0.002271
0.004326
0.006007
0.003299
0.004479
0.005521
0.002738
0.002990
0.004126
0.004843
0.004598
0.003831
0.005634
0.007082
0.006908
0.003124
0.003778
0.005981
0.004753
0.006231
0.005751
0.004729
0.004267
0.006806
0.002695
0.003955
0.004966
0.002600
0.003556
0.002053
0.001666
0.002911
0.003669
0.006264
0.003595
0.001967
0.001744
0.006757
0.005288
0.003302
0.003868
0.007562
0.003312
0.007115
0.002385
0.003209
0.006763
0.001568
0.003360
0.005715
0.004595
0.002986
0.006069
0.002288
0.003532
0.007679
0.005841
0.005432
0.007962
0.003101
0.006333
0.002935
0.006235
0.003915
0.007601
0.003284
0.006277
0.004185
0.004329
0.005361
0.006217
0.005133
0.007517
0.004623
0.002744
0.005060
0.003219
0.004051
0.002579
0.004401
0.003672
0.006752
0.003542
0.007123
0.006765
0.007278
0.004788
0.007893
0.005604
0.007050
0.005868
0.003426
0.006568
0.004539
0.002811
0.006442
0.002021
0.001982
0.001786
0.004851
0.003623
0.002380
0.003195
0.005915
0.003478
0.005665
0.002092
0.003599
0.005516
0.001672
0.004389
0.002877
0.002477
0.003704
0.004666
0.003077
0.002330
0.005779
0.004081
0.004095
0.006191
0.004158
0.004970
0.001981
0.004252
0.003254
0.006174
0.004357
0.004884
0.003098
0.002811
0.003916
0.004404
0.003389
0.005587
0.003155
0.003630
0.004004
0.002267
0.003655
0.003018
0.003605
0.002978
0.005155
0.003238
0.005526
0.005067
0.005871
0.003490
0.006226
0.003675
0.005058
0.004769
0.004351
0.003023
0.004825
0.002797
0.005149
0.002476
0.001739
0.002016
0.004332
0.004299
0.003120
0.002483
0.005233
0.002155
0.005309
0.002955
0.001738
0.004457
0.003492
0.005615
0.002629
0.002641
0.006271
0.002136
0.004180
0.002544
0.004684
0.003546
0.002669
0.003930
0.006023
0.002004
0.002765
0.004552
0.002172
0.004374
0.005315
0.001746
0.003862
0.003382
0.004850
0.004975
0.003977
0.005436
0.003195
0.005906
0.001999
0.002955
0.004738
0.002339
0.005217
0.002784
0.005897
0.002639
0.005799
0.003836
0.003033
0.002789
0.004781
0.005083
0.003911
0.004634
0.001490
0.003377
0.005542
0.003656
0.003254
0.003331
0.003296
0.003125
0.002275
0.003873
0.005529
0.001617
0.002882
0.001531
0.002985
0.001742
0.003448
0.002311
0.005371
0.003347
0.006178
0.001590
0.004625
0.003476
0.006939
0.002450
0.001916
0.002287
0.002946
0.001481
0.003377
0.006753
0.002976
0.001934
0.003223
0.001548
0.003130
0.004796
0.004652
0.006431
0.003426
0.005032
0.003890
0.002910
0.003033
0.001566
0.001796
0.005798
0.004280
0.005994
0.002542
0.006604
0.001738
0.004183
0.001363
0.003344
0.002272
0.002865
0.001820
0.002710
0.002144
0.003039
0.003537
0.001560
0.004053
0.002228
0.005923
0.002737
0.005420
0.005317
0.005142
0.003992
0.002603
0.005640
0.003147
0.005298
0.002959
0.005279
0.003242
0.002721
0.003951
0.003321
0.002582
0.002500
0.004004
0.002000
0.002652
0.004510
0.005778
0.006178
0.004282
0.002943
0.004385
0.002293
0.004638
0.005981
0.003240
0.003481
0.004469
0.003309
0.002010
0.001710
0.003879
0.003275
0.003958
0.004477
0.003660
0.005454
0.002206
0.003273
0.003096
0.002561
0.002975
0.002039
0.004660
0.002951
0.005089
0.002940
0.005318
0.005815
0.006007
0.003732
0.004316
0.005046
0.003918
0.004591
0.004736
0.003556
0.002036
0.005230
0.001671
0.001380
0.002286
0.003847
0.005067
0.001621
0.002902
0.001531
0.003008
0.005726
0.001716
0.003467
0.005609
0.002270
0.005395
0.003286
0.001582
0.004661
0.003334
0.007005
0.002469
0.001923
0.002272
0.002968
0.001477
0.003421
0.004440
0.002958
0.001897
0.003248
0.001517
0.003143
0.004809
0.003352
0.004836
0.003830
0.002857
0.003042
0.001550
0.001801
0.005915
0.004109
0.005972
0.002512
0.006588
0.001703
0.004184
0.001362
0.003369
0.002289
0.002892
0.001808
0.002728
0.002120
0.003030
0.003538
0.001483
0.002168
0.004009
0.006157
0.002755
0.004480
0.006840
0.006503
0.006825
0.005356
0.003028
0.003913
0.007625
0.003350
0.007163
0.003227
0.006788
0.003355
0.005773
0.003005
0.004649
0.003017
0.006136
0.002327
0.003458
0.007735
0.005908
0.005478
0.008004
0.003120
0.006392
0.002152
0.006300
0.003962
0.007640
0.003291
0.006305
0.004234
0.002566
0.001701
0.004158
0.005407
0.006288
0.005138
0.007580
0.004677
0.002775
0.005112
0.003075
0.003974
0.002588
0.004453
0.003702
0.006818
0.003586
0.007194
0.006836
0.007317
0.004841
0.007949
0.005656
0.007111
0.005893
0.003432
0.004524
0.006624
0.002003
0.006496
0.001617
0.001442
0.002907
0.004817
0.005542
0.003263
0.002198
0.003480
0.002092
0.005651
0.004402
0.001642
0.005118
0.005140
0.003999
0.004687
0.004098
0.003171
0.006117
0.004517
0.002518
0.002956
0.003809
0.002297
0.003246
0.002439
0.005066
0.003828
0.004117
0.001886
0.003615
0.001873
0.005502
0.005198
0.004771
0.004317
0.004405
0.002889
0.003246
0.005154
0.003513
0.005759
0.005161
0.005818
0.004036
0.004007
0.003445
0.003321
0.002745
0.002946
0.002956
0.003295
0.002213
0.003586
0.003404
0.001570
0.004380
0.003882
0.004227
0.006073
0.003665
0.006205
0.004729
0.005794
0.001776
0.003979
0.005504
0.003293
0.004128
0.001642
0.002121
0.005631
0.002334
0.001502
0.004246
0.005548
0.004300
0.004361
0.005200
0.005433
0.004015
0.004903
0.003234
0.002758
0.007444
0.006198
0.005994
0.005533
0.005512
0.005908
0.005464
0.005655
0.005714
0.004864
0.002094
0.003116
0.004419
0.007108
0.008313
0.004918
0.005870
0.007168
0.005819
0.005501
0.004555
0.003532
0.003392
0.006652
0.004933
0.003567
0.005398
0.005462
0.002204
0.005727
0.005615
0.004140
0.005159
0.001639
0.002301
0.004120
0.003193
0.006896
0.005946
0.005175
0.005904
0.002480
0.002366
0.001847
0.004192
0.006502
0.001954
0.003009
0.005335
0.005993
0.005799
0.005393
0.002021
0.003432
0.004851
0.002626
0.002174
0.004842
0.005050
0.003006
0.003911
0.004884
0.005574
0.005162
0.006118
0.006389
0.007936
0.006887
0.007288
0.004431
0.006248
0.007618
0.005308
0.003450
0.004237
0.002918
0.001948
0.002233
0.006403
0.003111
0.005350
0.002111
