# vtk DataFile Version 2.0
Unstructured Grid Example
ASCII
DATASET UNSTRUCTURED_GRID
POINTS 1108 float
1.004998 0.006477 -0.001063 
-1.004919 -0.006386 0.000999 
0.006450 0.993302 0.001765 
-0.006447 -0.993257 -0.001782 
-0.001056 0.001718 1.001969 
0.001079 -0.001787 -1.001732 
1.204691 0.004279 -0.000705 
-1.204687 -0.004323 0.000662 
0.004273 1.193669 0.001101 
-0.004362 -1.193611 -0.001162 
-0.000683 0.001145 1.201847 
0.000672 -0.001109 -1.201722 
0.987945 0.201096 -0.000656 
0.932543 0.388255 -0.000318 
0.840741 0.560361 0.000016 
0.716108 0.710676 0.000468 
0.563810 0.832964 0.000875 
0.390115 0.922730 0.001213 
0.201827 0.976854 0.001494 
-0.188740 0.972014 0.001911 
-0.376348 0.913597 0.002024 
-0.549798 0.820676 0.002018 
-0.702415 0.696885 0.001939 
-0.828461 0.546374 0.001821 
-0.923369 0.374636 0.001615 
-0.983036 0.188030 0.001339 
-0.987838 -0.201043 0.000620 
-0.932473 -0.388220 0.000348 
-0.840561 -0.560302 -0.000055 
-0.715944 -0.710693 -0.000495 
-0.563766 -0.833056 -0.000864 
-0.390143 -0.922853 -0.001196 
-0.201885 -0.976833 -0.001534 
0.188684 -0.971976 -0.001958 
0.376306 -0.913636 -0.002054 
0.549754 -0.820659 -0.002066 
0.702319 -0.696881 -0.001974 
0.828457 -0.546365 -0.001841 
0.923297 -0.374563 -0.001662 
0.983008 -0.187945 -0.001401 
-0.002342 -0.192558 0.982004 
-0.003470 -0.379221 0.924079 
-0.004509 -0.550961 0.830621 
-0.005326 -0.701427 0.705455 
-0.005961 -0.824786 0.553499 
-0.006345 -0.916657 0.380465 
-0.006608 -0.973686 0.193114 
-0.006111 -0.975006 -0.196725 
-0.005551 -0.919374 -0.384340 
-0.004730 -0.828393 -0.557374 
-0.003741 -0.705240 -0.709185 
-0.002687 -0.554810 -0.833846 
-0.001445 -0.382894 -0.926345 
-0.000144 -0.196182 -0.983054 
0.002263 0.192644 -0.981851 
0.003429 0.379250 -0.923875 
0.004480 0.551013 -0.830636 
0.005266 0.701492 -0.705517 
0.005891 0.824842 -0.553535 
0.006287 0.916712 -0.380502 
0.006547 0.973689 -0.193135 
0.006070 0.974996 0.196650 
0.005519 0.919341 0.384226 
0.004770 0.828237 0.557373 
0.003765 0.705165 0.709164 
0.002776 0.554777 0.833822 
0.001514 0.382819 0.926443 
0.000178 0.196073 0.983180 
0.985192 0.006638 0.194488 
0.927521 0.006622 0.382562 
0.834351 0.006249 0.555863 
0.709123 0.005756 0.707677 
0.556783 0.005062 0.832325 
0.383162 0.004006 0.925073 
0.194827 0.002817 0.982350 
-0.196870 0.000351 0.983178 
-0.385429 -0.000804 0.926638 
-0.559026 -0.002218 0.834342 
-0.711183 -0.003261 0.709910 
-0.836140 -0.004338 0.558127 
-0.928960 -0.005205 0.384768 
-0.985956 -0.005888 0.196605 
-0.985176 -0.006576 -0.194556 
-0.927544 -0.006610 -0.382629 
-0.834395 -0.006194 -0.555927 
-0.709171 -0.005726 -0.707707 
-0.556892 -0.004961 -0.832257 
-0.383128 -0.003877 -0.924932 
-0.194732 -0.002821 -0.982114 
0.196964 -0.000501 -0.983079 
0.385328 0.000817 -0.926532 
0.559011 0.002165 -0.834277 
0.711261 0.003286 -0.709928 
0.836252 0.004358 -0.558155 
0.928992 0.005303 -0.384810 
0.985956 0.006014 -0.196706 
1.192008 0.192086 -0.000517 
1.149464 0.375505 -0.000285 
1.078017 0.549794 -0.000061 
0.979335 0.710243 0.000154 
0.856251 0.852721 0.000266 
0.712077 0.973662 0.000542 
0.550458 1.070120 0.000707 
0.375571 1.139784 0.000858 
0.191993 1.181221 0.001036 
-0.183094 1.176846 0.001203 
-0.365684 1.131460 0.001355 
-0.538966 1.058756 0.001348 
-0.699435 0.960889 0.001429 
-0.843268 0.839695 0.001285 
-0.966637 0.697624 0.001194 
-1.066732 0.538376 0.001141 
-1.141116 0.365561 0.001018 
-1.187608 0.183174 0.000890 
-1.191886 -0.192019 0.000502 
-1.149373 -0.375370 0.000217 
-1.077919 -0.549755 0.000032 
-0.979210 -0.710096 -0.000163 
-0.856321 -0.852581 -0.000285 
-0.712145 -0.973642 -0.000582 
-0.550499 -1.070198 -0.000717 
-0.375585 -1.139851 -0.000891 
-0.191996 -1.181192 -0.000999 
0.183082 -1.176856 -0.001226 
0.365622 -1.131471 -0.001350 
0.538943 -1.058747 -0.001382 
0.699405 -0.960874 -0.001441 
0.843218 -0.839640 -0.001310 
0.966569 -0.697572 -0.001213 
1.066683 -0.538314 -0.001162 
1.141049 -0.365523 -0.001037 
1.187581 -0.183179 -0.000911 
-0.004143 -1.179620 -0.188486 
-0.003864 -1.136734 -0.371476 
-0.003504 -1.065852 -0.545553 
-0.003142 -0.968613 -0.706363 
-0.002514 -0.847299 -0.850014 
-0.001844 -0.704881 -0.972698 
-0.001274 -0.544955 -1.071414 
-0.000641 -0.371341 -1.143644 
-0.000065 -0.188415 -1.187476 
0.001441 0.186060 -1.186226 
0.001999 0.368830 -1.141431 
0.002554 0.541920 -1.068457 
0.003048 0.701606 -0.969218 
0.003436 0.843754 -0.846470 
0.003965 0.965095 -0.702886 
0.004096 1.062605 -0.542362 
0.004245 1.134353 -0.368816 
0.004342 1.178349 -0.186111 
0.004147 1.179635 0.188517 
0.003871 1.136704 0.371432 
0.003489 1.065618 0.545644 
0.003215 0.968447 0.706346 
0.002561 0.847221 0.849954 
0.001733 0.704870 0.972727 
0.001289 0.544951 1.071414 
0.000671 0.371356 1.143718 
0.000069 0.188474 1.187593 
-0.001383 -0.186277 1.186424 
-0.001997 -0.368768 1.141553 
-0.002607 -0.541980 1.068468 
-0.003071 -0.701595 0.969224 
-0.003430 -0.843716 0.846416 
-0.003996 -0.965050 0.702854 
-0.004126 -1.062543 0.542331 
-0.004277 -1.134318 0.368813 
-0.004365 -1.178339 0.186095 
-1.190166 -0.004028 0.189006 
-1.146242 -0.003760 0.372606 
-1.073924 -0.003273 0.547034 
-0.975164 -0.002889 0.707836 
-0.852282 -0.002165 0.851277 
-0.708401 -0.001533 0.973852 
-0.547447 -0.000940 1.072187 
-0.372609 -0.000251 1.143825 
-0.188927 0.000406 1.187429 
0.187523 0.001814 1.186733 
0.371025 0.002487 1.142553 
0.545443 0.002992 1.070278 
0.706431 0.003318 0.971764 
0.850175 0.003849 0.849331 
0.973096 0.004237 0.706014 
1.072271 0.004297 0.545205 
1.144935 0.004417 0.371046 
1.189430 0.004417 0.187509 
1.190228 0.004022 -0.189021 
1.146321 0.003746 -0.372653 
1.074066 0.003265 -0.547067 
0.975256 0.002838 -0.707876 
0.852299 0.002170 -0.851345 
0.708350 0.001597 -0.973849 
0.547408 0.000893 -1.072061 
0.372716 0.000209 -1.143717 
0.188824 -0.000257 -1.187345 
-0.187534 -0.001753 -1.186548 
-0.371008 -0.002613 -1.142314 
-0.545385 -0.002973 -1.070213 
-0.706311 -0.003472 -0.971792 
-0.850178 -0.003816 -0.849372 
-0.973126 -0.004186 -0.706049 
-1.072310 -0.004246 -0.545238 
-1.144963 -0.004374 -0.371069 
-1.189416 -0.004390 -0.187524 
0.818907 -0.390162 -0.416575 
0.413099 -0.786265 -0.444308 
0.394126 -0.374869 -0.840323 
0.894300 -0.291975 -0.338637 
0.291279 -0.886837 -0.336104 
0.682950 -0.331261 -0.651609 
0.555344 -0.623977 -0.541407 
0.868275 -0.472418 -0.110230 
0.178185 -0.616879 -0.765777 
0.615111 -0.168249 -0.773937 
0.876874 -0.150982 -0.462719 
0.202216 -0.846532 -0.481973 
0.957407 -0.132229 -0.267849 
0.805316 -0.287255 -0.519644 
0.680463 -0.635623 -0.345140 
0.458778 -0.852775 -0.203276 
0.624344 -0.747482 -0.176561 
0.526153 -0.472900 -0.705275 
0.800396 -0.137743 -0.588909 
0.553422 -0.744893 -0.349942 
0.989435 -0.116289 -0.115036 
0.768824 -0.607898 -0.153695 
0.147051 -0.941590 -0.279071 
0.939306 -0.299355 -0.160768 
0.735559 -0.463377 -0.488569 
0.262865 -0.942295 -0.153970 
0.550902 -0.297370 -0.781626 
0.331008 -0.699911 -0.627177 
0.833180 -0.461156 -0.291676 
0.500224 -0.179091 -0.850497 
0.144053 -0.754216 -0.637034 
0.193821 -0.478952 -0.857180 
0.176831 -0.317350 -0.933873 
0.349855 -0.552665 -0.754910 
0.637677 -0.475897 -0.602237 
0.118373 -0.976653 -0.126953 
0.446357 -0.596725 -0.662784 
0.330425 -0.214637 -0.921838 
0.206184 -0.132678 -0.972163 
0.508894 0.583610 -0.639873 
0.512598 0.784897 -0.359682 
0.816551 0.376601 -0.457453 
0.406284 0.468388 -0.788505 
0.358126 0.884051 -0.301710 
0.295232 0.312313 -0.905521 
0.172918 0.162337 -0.973480 
0.767974 0.219880 -0.613461 
0.680683 0.540323 -0.509636 
0.511085 0.847587 -0.170363 
0.606998 0.178409 -0.781530 
0.190325 0.873474 -0.440471 
0.173649 0.472341 -0.863940 
0.564175 0.685098 -0.472384 
0.158703 0.949370 -0.254871 
0.393710 0.139926 -0.912589 
0.127201 0.320424 -0.939249 
0.634662 0.705388 -0.336893 
0.120588 0.621458 -0.771020 
0.174191 0.751224 -0.632372 
0.307564 0.622948 -0.720182 
0.866062 0.491059 -0.172198 
0.615958 0.395644 -0.690383 
0.383608 0.765269 -0.519519 
0.769903 0.557853 -0.338191 
0.132366 0.980533 -0.109577 
0.296643 0.943943 -0.138977 
0.716864 0.693814 -0.148735 
0.953713 0.152407 -0.287608 
0.478631 0.306283 -0.828292 
0.863736 0.414865 -0.318366 
0.883489 0.175256 -0.452143 
0.947797 0.298272 -0.178526 
0.903965 0.288775 -0.343122 
0.989573 0.134447 -0.133248 
0.732909 0.387625 -0.573047 
0.465689 0.462964 0.761410 
0.459928 0.806587 0.384948 
0.839276 0.417371 0.373624 
0.335366 0.316644 0.891749 
0.310760 0.904405 0.297873 
0.913497 0.343604 0.256166 
0.969327 0.174911 0.210142 
0.558228 0.635630 0.546123 
0.111358 0.481367 0.872674 
0.757005 0.172103 0.638192 
0.444650 0.164078 0.884178 
0.436579 0.884735 0.184414 
0.873704 0.478242 0.168567 
0.262800 0.144372 0.956703 
0.260905 0.954134 0.143700 
0.946527 0.328202 0.123594 
0.616377 0.164538 0.775104 
0.519248 0.295639 0.807764 
0.323081 0.630253 0.711829 
0.784427 0.625485 0.114912 
0.677579 0.727031 0.170990 
0.594658 0.498704 0.641562 
0.198184 0.752870 0.630682 
0.767984 0.582629 0.299412 
0.637182 0.688799 0.368389 
0.395852 0.721175 0.576833 
0.560106 0.805629 0.223853 
0.116859 0.981418 0.125207 
0.112565 0.125465 0.988117 
0.471379 0.597618 0.657595 
0.154780 0.613133 0.777936 
0.710199 0.511615 0.500481 
0.647675 0.354875 0.683513 
0.159551 0.310984 0.940255 
0.171927 0.945751 0.270127 
0.790283 0.325284 0.533401 
0.844675 0.146655 0.524735 
0.222270 0.863427 0.454928 
0.892712 0.239375 0.400083 
0.260004 0.478354 0.843330 
0.505680 -0.777246 0.338851 
0.326861 -0.366875 0.866411 
0.320933 -0.863640 0.356327 
0.145914 -0.460346 0.871297 
0.512918 -0.153060 0.843385 
0.420090 -0.873830 0.185098 
0.602781 -0.537911 0.574099 
0.265416 -0.170535 0.948266 
0.221143 -0.947355 0.176761 
0.911993 -0.365772 0.161090 
0.767035 -0.392656 0.495499 
0.733436 -0.649737 0.138841 
0.869299 -0.181587 0.457406 
0.956708 -0.174302 0.233360 
0.504825 -0.315922 0.798306 
0.561283 -0.666654 0.467190 
0.605202 -0.763757 0.160150 
0.703135 -0.627449 0.301379 
[...]
POINT_DATA 1108
SCALARS u float 1
LOOKUP_TABLE default
0.008250
0.008123
0.009465
0.009498
0.002819
0.002712
0.006389
0.006410
0.007717
0.007824
0.002278
0.002156
0.009369
0.010306
0.010436
0.009695
0.008420
0.007617
0.007942
0.010996
0.012246
0.012405
0.011413
0.009846
0.008224
0.007530
0.009250
0.010229
0.010249
0.009550
0.008393
0.007624
0.008009
0.011067
0.012240
0.012448
0.011463
0.009859
0.008310
0.007613
0.003658
0.004906
0.006504
0.007959
0.009192
0.009866
0.009898
0.008569
0.007339
0.005924
0.004669
0.003667
0.002865
0.002522
0.003499
0.004853
0.006445
0.007860
0.009098
0.009780
0.009851
0.008531
0.007310
0.006038
0.004709
0.003724
0.002980
0.002594
0.007990
0.007558
0.006888
0.006125
0.005275
0.004207
0.003233
0.003002
0.003974
0.005011
0.005925
0.006868
0.007566
0.007982
0.007925
0.007558
0.006860
0.006116
0.005194
0.004042
0.003138
0.003004
0.003834
0.004940
0.006001
0.006967
0.007667
0.008095
0.008082
0.009444
0.010132
0.009825
0.008792
0.007329
0.005786
0.005050
0.005947
0.009648
0.011154
0.012040
0.011643
0.010361
0.008860
0.006968
0.005359
0.005210
0.007942
0.009297
0.010028
0.009644
0.008788
0.007387
0.005840
0.005050
0.005962
0.009647
0.011172
0.012063
0.011673
0.010436
0.008940
0.007046
0.005403
0.005196
0.007013
0.005993
0.004911
0.003973
0.003168
0.002671
0.002553
0.002516
0.002356
0.002416
0.002826
0.003914
0.005081
0.006232
0.007384
0.008141
0.008358
0.008291
0.007007
0.006016
0.005078
0.004120
0.003209
0.002620
0.002560
0.002596
0.002485
0.002331
0.002877
0.003903
0.005101
0.006276
0.007447
0.008215
0.008403
0.008314
0.006502
0.006486
0.006164
0.005782
0.005132
0.004572
0.004102
0.003131
0.002544
0.002367
0.002807
0.003244
0.003617
0.004262
0.004856
0.005294
0.005745
0.006102
0.006548
0.006551
0.006281
0.005844
0.005183
0.004557
0.003975
0.003104
0.002402
0.002204
0.002821
0.003194
0.003733
0.004242
0.004831
0.005278
0.005731
0.006072
0.006807
0.008460
0.003524
0.006881
0.009346
0.005217
0.007025
0.008763
0.004252
0.004709
0.006596
0.007486
0.007335
0.006086
0.008921
0.011186
0.011073
0.004885
0.006009
0.009545
0.007605
0.009837
0.009097
0.007552
0.006749
0.010761
0.004226
0.006136
0.007852
0.004047
0.005526
0.003158
0.002581
0.004496
0.005772
0.009968
0.005578
0.003057
0.002709
0.006996
0.007784
0.009133
0.005781
0.007578
0.004487
0.003437
0.007683
0.008444
0.008025
0.006072
0.008009
0.005298
0.007891
0.008570
0.004342
0.004283
0.008674
0.006494
0.007282
0.006146
0.010416
0.007190
0.007083
0.009571
0.008623
0.007763
0.009603
0.008826
0.005602
0.009824
0.008520
0.009926
0.009432
0.009009
0.008336
0.006017
0.007474
0.009388
0.004478
0.007020
0.009561
0.008903
0.007688
0.003829
0.006993
0.004670
0.007585
0.010259
0.003498
0.007400
0.009916
0.005865
0.005598
0.005565
0.010077
0.009318
0.007425
0.005361
0.009595
0.008792
0.006563
0.008349
0.008121
0.002888
0.006674
0.004513
0.008597
0.007072
0.003393
0.007240
0.008235
0.007520
0.006328
0.008471
0.004510
0.012867
0.006502
0.012470
0.006400
0.005476
0.012974
0.010248
0.004387
0.011996
0.008609
0.008948
0.011402
0.007402
0.007702
0.006915
0.011762
0.012695
0.011533
0.003370
0.004677
0.010419
0.011206
0.011855
0.009934
0.010884
0.006902
0.011760
0.009008
0.010583
0.009738
0.008188
0.010471
0.008434
0.008233
0.006177
0.005346
0.008398
0.010739
0.007039
0.007784
0.008898
0.005785
0.007592
0.004605
0.003521
0.007632
0.008406
0.008022
0.006117
0.008073
0.005304
0.007791
0.008595
0.004433
0.004278
0.008577
0.006538
0.007349
0.006230
0.010268
0.007189
0.007157
0.009599
0.008677
0.007775
0.009436
0.008690
0.005641
0.009708
0.008350
0.009757
0.009225
0.008910
0.008248
0.005964
0.007487
0.009376
0.004326
0.006926
0.009567
0.008854
0.007626
0.003725
0.007026
0.004526
0.007561
0.010069
0.003417
0.007441
0.009849
0.005900
0.005585
0.005582
0.009942
0.009145
0.007335
0.005392
0.009630
0.008739
0.006544
0.008325
0.008146
0.002764
0.006666
0.004469
0.008488
0.007042
0.003294
0.007189
0.008212
0.007547
0.006302
0.008573
0.004539
0.012763
0.006408
0.012345
0.006227
0.005433
0.012893
0.010140
0.004229
0.011925
0.008532
0.008873
0.011337
0.007348
0.007638
0.006839
0.011650
0.012636
0.011417
0.003216
0.004565
0.010296
0.011087
0.011754
0.009869
0.010747
0.006840
0.011629
0.008851
0.010489
0.009655
0.008105
0.010360
0.008353
0.008123
0.006160
0.005253
0.008322
0.010688
0.006781
0.008575
0.003584
0.006827
0.009479
0.005205
0.007068
0.008712
0.004320
0.004718
0.006510
0.007641
0.007255
0.006045
0.008890
0.011176
0.010901
0.004929
0.005961
0.009437
0.007501
0.009833
0.009076
0.007462
0.006733
0.010739
0.004253
0.006241
0.007836
0.004103
0.005611
0.003240
0.002629
0.004594
0.005790
0.009885
0.005672
0.003104
0.002752
0.010663
0.008345
0.005210
0.006104
0.011933
0.005226
0.011228
0.003764
0.005064
0.010672
0.002475
0.005302
0.009018
0.007250
0.004712
0.009577
0.003610
0.005574
0.012117
0.009217
0.008571
0.012564
0.004894
0.009994
0.004631
0.009838
0.006178
0.011994
0.005182
0.009904
0.006605
0.006831
0.008460
0.009810
0.008100
0.011862
0.007295
0.004330
0.007984
0.005079
0.006392
0.004069
0.006945
0.005794
0.010655
0.005590
0.011239
0.010676
0.011485
0.007556
0.012456
0.008844
0.011125
0.009259
0.005407
0.010365
0.007162
0.004436
0.010166
0.003189
0.003127
0.002819
0.007655
0.005717
0.003755
0.005041
0.009333
0.005489
0.008940
0.003301
0.005679
0.008704
0.002639
0.006925
0.004539
0.003908
0.005845
0.007362
0.004855
0.003677
0.009119
0.006440
0.006462
0.009769
0.006561
0.007843
0.003126
0.006710
0.005135
0.009742
0.006875
0.007707
0.004889
0.004436
0.006180
0.006949
0.005348
0.008816
0.004979
0.005729
0.006319
0.003578
0.005767
0.004763
0.005688
0.004699
0.008135
0.005109
0.008720
0.007995
0.009264
0.005507
0.009824
0.005799
0.007981
0.007525
0.006865
0.004771
0.007614
0.004413
0.008125
0.003907
0.002743
0.003181
0.006837
0.006784
0.004923
0.003918
0.008258
0.003401
0.008378
0.004663
0.002743
0.007033
0.005510
0.008861
0.004149
0.004168
0.009895
0.003370
0.006596
0.004015
0.007392
0.005596
0.004212
0.006202
0.009504
0.003162
0.004364
0.007183
0.003428
0.006903
0.008388
0.002756
0.006094
0.005337
0.007653
0.007850
0.006276
0.008578
0.005042
0.009320
0.003154
0.004664
0.007477
0.003691
0.008233
0.004393
0.009306
0.004164
0.009151
0.006053
0.004786
0.004401
0.007544
0.008021
0.006172
0.007312
0.002351
0.005329
0.008745
0.005769
0.005135
0.005257
0.005201
0.004931
0.003590
0.006112
0.008725
0.002551
0.004548
0.002415
0.004711
0.002749
0.005440
0.003646
0.008475
0.005281
0.009748
0.002508
0.007298
0.005485
0.010950
0.003866
0.003024
0.003608
0.004649
0.002338
0.005329
0.010657
0.004696
0.003051
0.005085
0.002442
0.004940
0.007568
0.007341
0.010148
0.005405
0.007941
0.006138
0.004593
0.004787
0.002471
0.002834
0.009149
0.006753
0.009458
0.004011
0.010422
0.002742
0.006600
0.002151
0.005276
0.003585
0.004520
0.002871
0.004277
0.003383
0.004795
0.005582
0.002462
0.006396
0.003515
0.009347
0.004319
0.008552
0.008391
0.008113
0.006299
0.004108
0.008900
0.004966
0.008361
0.004669
0.008330
0.005116
0.004294
0.006235
0.005240
0.004074
0.003945
0.006319
0.003157
0.004185
0.007117
0.009118
0.009749
0.006756
0.004644
0.006919
0.003619
0.007319
0.009438
0.005113
0.005493
0.007053
0.005222
0.003172
0.002699
0.006121
0.005168
0.006245
0.007064
0.005776
0.008607
0.003480
0.005166
0.004886
0.004041
0.004695
0.003217
0.007353
0.004657
0.008030
0.004639
0.008392
0.009176
0.009480
0.005889
0.006810
0.007963
0.006182
0.007245
0.007473
0.005611
0.003212
0.008252
0.002637
0.002178
0.003607
0.006071
0.007995
0.002558
0.004579
0.002416
0.004746
0.009035
0.002707
0.005472
0.008851
0.003583
0.008514
0.005185
0.002496
0.007354
0.005261
0.011054
0.003897
0.003034
0.003585
0.004684
0.002330
0.005398
0.007006
0.004667
0.002994
0.005125
0.002394
0.004960
0.007589
0.005290
0.007632
0.006044
0.004508
0.004800
0.002447
0.002843
0.009334
0.006484
0.009424
0.003964
0.010396
0.002687
0.006602
0.002149
0.005316
0.003612
0.004564
0.002853
0.004305
0.003345
0.004781
0.005583
0.002339
0.003421
0.006326
0.009715
0.004348
0.007070
0.010793
0.010261
0.010770
0.008452
0.004778
0.006174
0.012032
0.005286
0.011303
0.005092
0.010711
0.005295
0.009110
0.004741
0.007337
0.004760
0.009682
0.003673
0.005457
0.012205
0.009322
0.008645
0.012630
0.004924
0.010086
0.003395
0.009942
0.006252
0.012055
0.005193
0.009950
0.006681
0.004050
0.002685
0.006562
0.008532
0.009923
0.008108
0.011961
0.007380
0.004379
0.008066
0.004853
0.006272
0.004083
0.007026
0.005842
0.010759
0.005658
0.011352
0.010788
0.011546
0.007639
0.012543
0.008926
0.011221
0.009299
0.005416
0.007139
0.010452
0.003161
0.010250
0.002552
0.002276
0.004587
0.007602
0.008745
0.005150
0.003468
0.005491
0.003301
0.008917
0.006946
0.002592
0.008077
0.008110
0.006310
0.007396
0.006467
0.005004
0.009653
0.007128
0.003973
0.004665
0.006010
0.003625
0.005122
0.003848
0.007994
0.006041
0.006497
0.002977
0.005705
0.002956
0.008683
0.008203
0.007529
0.006812
0.006951
0.004558
0.005122
0.008133
0.005544
0.009087
0.008144
0.009181
0.006368
0.006322
0.005437
0.005241
0.004331
0.004649
0.004665
0.005200
0.003492
0.005658
0.005371
0.002478
0.006912
0.006125
0.006671
0.009584
0.005783
0.009791
0.007462
0.009143
0.002802
0.006278
0.008685
0.005196
0.006514
0.002590
0.003348
0.008885
0.003683
0.002370
0.006701
0.008755
0.006785
0.006882
0.008206
0.008574
0.006336
0.007737
0.005102
0.004353
0.011747
0.009780
0.009459
0.008731
0.008697
0.009323
0.008623
0.008924
0.009017
0.007675
0.003304
0.004917
0.006974
0.011217
0.013117
0.007760
0.009263
0.011311
0.009182
0.008680
0.007188
0.005573
0.005353
0.010497
0.007784
0.005629
0.008518
0.008618
0.003477
0.009037
0.008861
0.006533
0.008141
0.002586
0.003630
0.006501
0.005039
0.010882
0.009382
0.008167
0.009317
0.003913
0.003734
0.002915
0.006615
0.010260
0.003084
0.004748
0.008418
0.009457
0.009150
0.008510
0.003189
0.005415
0.007656
0.004144
0.003430
0.007640
0.007969
0.004743
0.006171
0.007707
0.008796
0.008145
0.009654
0.010081
0.012523
0.010868
0.011501
0.006992
0.009860
0.012021
0.008375
0.005445
0.006686
0.004605
0.003075
0.003523
0.010104
0.004908
0.008443
0.003332
