# vtk DataFile Version 2.0
Unstructured Grid Example
ASCII
DATASET UNSTRUCTURED_GRID
POINTS 1108 float
1.000650 0.000249 -0.006133 
-1.000650 -0.000241 0.006075 
0.000318 1.003558 -0.000937 
-0.000275 -1.003639 0.000973 
-0.006035 -0.000943 0.995749 
0.006009 0.000978 -0.995784 
1.200620 0.000173 -0.004064 
-1.200610 -0.000110 0.004067 
0.000226 1.203446 -0.000635 
-0.000208 -1.203396 0.000689 
-0.004031 -0.000637 1.195999 
0.004052 0.000660 -1.195978 
0.981518 0.195823 -0.006168 
0.924748 0.384006 -0.006005 
0.832514 0.557519 -0.005565 
0.708256 0.709611 -0.005002 
0.556679 0.834503 -0.004062 
0.383570 0.927305 -0.003141 
0.195691 0.984400 -0.002098 
-0.195070 0.984073 0.000159 
-0.382991 0.926828 0.001366 
-0.556008 0.833954 0.002599 
-0.707681 0.709014 0.003672 
-0.832175 0.556906 0.004474 
-0.924445 0.383430 0.005289 
-0.981387 0.195348 0.005770 
-0.981521 -0.195774 0.006117 
-0.924668 -0.383958 0.005955 
-0.832359 -0.557449 0.005525 
-0.708110 -0.709570 0.004958 
-0.556602 -0.834506 0.004115 
-0.383533 -0.927311 0.003225 
-0.195687 -0.984377 0.002084 
0.195157 -0.984172 -0.000162 
0.383006 -0.926951 -0.001350 
0.556035 -0.834000 -0.002664 
0.707670 -0.709024 -0.003656 
0.832165 -0.556922 -0.004479 
0.924421 -0.383418 -0.005302 
0.981390 -0.195329 -0.005786 
-0.005950 -0.196265 0.977065 
-0.005684 -0.384192 0.920946 
-0.005130 -0.557606 0.829508 
-0.004440 -0.709718 0.706106 
-0.003610 -0.834721 0.555236 
-0.002517 -0.927506 0.382968 
-0.001402 -0.984595 0.195779 
0.000909 -0.983883 -0.193887 
0.002052 -0.926180 -0.380987 
0.003150 -0.832888 -0.553192 
0.004063 -0.707686 -0.704006 
0.004816 -0.555498 -0.827672 
0.005458 -0.382190 -0.919564 
0.005817 -0.194316 -0.976340 
0.005942 0.196249 -0.977079 
0.005620 0.384186 -0.921057 
0.005174 0.557619 -0.829523 
0.004466 0.709705 -0.706055 
0.003600 0.834692 -0.555203 
0.002558 0.927499 -0.382931 
0.001455 0.984590 -0.195759 
-0.000859 0.983886 0.193905 
-0.002075 0.926213 0.380906 
-0.003152 0.832871 0.553212 
-0.004096 0.707712 0.704035 
-0.004860 0.555515 0.827636 
-0.005477 0.382223 0.919633 
-0.005857 0.194351 0.976384 
0.979041 0.000060 0.188429 
0.919906 -0.000149 0.375100 
0.825710 -0.000290 0.547194 
0.700448 -0.000441 0.698158 
0.548631 -0.000665 0.822569 
0.375911 -0.000775 0.915876 
0.188746 -0.000855 0.974468 
-0.201049 -0.000940 0.978947 
-0.388840 -0.001030 0.924483 
-0.561889 -0.000901 0.834153 
-0.713494 -0.000841 0.711057 
-0.837470 -0.000789 0.560482 
-0.928610 -0.000550 0.388064 
-0.983729 -0.000412 0.200791 
-0.979033 -0.000047 -0.188476 
-0.919955 0.000145 -0.375156 
-0.825819 0.000272 -0.547219 
-0.700523 0.000439 -0.698190 
-0.548682 0.000614 -0.822476 
-0.375907 0.000758 -0.915864 
-0.188761 0.000872 -0.974475 
0.200998 0.000996 -0.978947 
0.388813 0.001029 -0.924463 
0.561825 0.000937 -0.834120 
0.713448 0.000859 -0.711062 
0.837476 0.000779 -0.560471 
0.928616 0.000592 -0.388097 
0.983671 0.000440 -0.200804 
1.185923 0.188199 -0.004078 
1.142122 0.371644 -0.004059 
1.070299 0.545979 -0.003863 
0.972003 0.706999 -0.003690 
0.849758 0.850742 -0.003367 
0.706585 0.973448 -0.002794 
0.545880 1.072275 -0.002374 
0.371659 1.144655 -0.001811 
0.188235 1.188708 -0.001329 
-0.187800 1.188487 0.000055 
-0.371233 1.144170 0.000781 
-0.545392 1.071790 0.001236 
-0.706138 0.972873 0.001760 
-0.849242 0.850188 0.002320 
-0.971451 0.706621 0.002977 
-1.069921 0.545573 0.003296 
-1.141810 0.371326 0.003604 
-1.185765 0.187919 0.003869 
-1.185899 -0.188201 0.004096 
-1.142044 -0.371614 0.004049 
-1.070175 -0.545939 0.003871 
-0.971881 -0.706923 0.003661 
-0.849753 -0.850688 0.003264 
-0.706580 -0.973396 0.002781 
-0.545848 -1.072280 0.002346 
-0.371640 -1.144638 0.001821 
-0.188231 -1.188725 0.001334 
0.187850 -1.188511 -0.000042 
0.371277 -1.144272 -0.000760 
0.545459 -1.071836 -0.001255 
0.706179 -0.972911 -0.001798 
0.849271 -0.850163 -0.002348 
0.971461 -0.706604 -0.003035 
1.069920 -0.545559 -0.003314 
1.141804 -0.371309 -0.003607 
1.185770 -0.187886 -0.003887 
0.000527 -1.188241 -0.186977 
0.001072 -1.143628 -0.369974 
0.001691 -1.070746 -0.543568 
0.002141 -0.971539 -0.703522 
0.002734 -0.848545 -0.846127 
0.003264 -0.704784 -0.967693 
0.003495 -0.544023 -1.065421 
0.003739 -0.370007 -1.137069 
0.003948 -0.186999 -1.180980 
0.003988 0.188340 -1.181617 
0.003881 0.371458 -1.138400 
0.003685 0.545753 -1.067121 
0.003399 0.706784 -0.969599 
0.002992 0.850524 -0.847936 
0.002416 0.973352 -0.705482 
0.001973 1.072355 -0.545235 
0.001530 1.144876 -0.371347 
0.000815 1.188864 -0.188374 
-0.000555 1.188188 0.186947 
-0.001062 1.143673 0.369927 
-0.001565 1.070659 0.543713 
-0.002130 0.971517 0.703521 
-0.002734 0.848570 0.846115 
-0.003322 0.704790 0.967771 
-0.003524 0.544036 1.065441 
-0.003770 0.370013 1.137124 
-0.003965 0.186979 1.180996 
-0.004029 -0.188305 1.181625 
-0.003882 -0.371492 1.138329 
-0.003681 -0.545713 1.067109 
-0.003412 -0.706758 0.969664 
-0.002974 -0.850514 0.847984 
-0.002402 -0.973372 0.705520 
-0.001964 -1.072381 0.545259 
-0.001518 -1.144883 0.371381 
-0.000798 -1.188879 0.188440 
-1.187903 -0.000265 0.191601 
-1.145588 -0.000293 0.374984 
-1.074678 -0.000445 0.549266 
-0.976673 -0.000441 0.709964 
-0.854173 -0.000626 0.852678 
-0.710707 -0.000628 0.974119 
-0.549503 -0.000640 1.071360 
-0.374972 -0.000620 1.141503 
-0.191582 -0.000662 1.183362 
0.183228 -0.000571 1.179229 
0.365648 -0.000565 1.133744 
0.538752 -0.000494 1.060681 
0.698683 -0.000396 0.962141 
0.841899 -0.000329 0.840426 
0.964560 -0.000272 0.697989 
1.063876 -0.000115 0.538422 
1.137656 -0.000005 0.365509 
1.183728 0.000074 0.183306 
1.187885 0.000286 -0.191664 
1.145622 0.000374 -0.374963 
1.074710 0.000453 -0.549267 
0.976632 0.000476 -0.709943 
0.854185 0.000611 -0.852649 
0.710719 0.000589 -0.974101 
0.549489 0.000631 -1.071326 
0.374916 0.000643 -1.141516 
0.191583 0.000646 -1.183328 
-0.183264 0.000560 -1.179266 
-0.365708 0.000552 -1.133743 
-0.538749 0.000519 -1.060627 
-0.698709 0.000493 -0.962251 
-0.841934 0.000326 -0.840473 
-0.964630 0.000259 -0.698045 
-1.063969 0.000099 -0.538475 
-1.137697 -0.000004 -0.365530 
-1.183726 -0.000064 -0.183319 
0.823301 -0.397949 -0.419117 
0.420484 -0.795707 -0.443899 
0.399664 -0.377744 -0.838387 
0.896989 -0.299226 -0.341678 
0.298696 -0.897166 -0.335017 
0.687783 -0.336672 -0.652789 
0.562182 -0.632122 -0.541826 
0.871758 -0.482147 -0.113147 
0.185305 -0.620277 -0.762048 
0.619151 -0.171362 -0.774081 
0.878929 -0.156471 -0.465486 
0.209823 -0.854349 -0.479849 
0.957543 -0.138547 -0.271442 
0.809215 -0.293575 -0.521959 
0.687100 -0.645866 -0.346837 
0.466068 -0.865237 -0.203415 
0.631189 -0.759711 -0.177852 
0.532090 -0.478274 -0.704958 
0.803389 -0.142301 -0.590867 
0.560775 -0.755703 -0.350615 
0.987817 -0.122910 -0.119229 
0.774149 -0.618900 -0.155926 
0.154399 -0.951389 -0.277027 
0.940750 -0.307376 -0.164287 
0.741094 -0.471364 -0.490477 
0.269936 -0.954166 -0.152698 
0.555790 -0.301006 -0.781329 
0.338169 -0.706437 -0.625662 
0.837895 -0.470134 -0.294214 
0.504440 -0.181210 -0.849417 
0.151560 -0.759237 -0.633806 
0.200316 -0.480836 -0.853017 
0.182594 -0.317706 -0.929133 
0.356305 -0.557199 -0.753009 
0.643653 -0.482661 -0.603233 
0.125164 -0.987574 -0.124851 
0.452919 -0.602948 -0.662132 
0.335238 -0.215423 -0.918831 
0.210884 -0.132118 -0.967853 
0.507417 0.586617 -0.641915 
0.508530 0.788775 -0.363114 
0.813896 0.375278 -0.460416 
0.406387 0.471629 -0.789292 
0.353760 0.890371 -0.305198 
0.297070 0.315181 -0.904248 
0.176200 0.164955 -0.969923 
0.767783 0.218356 -0.615505 
0.677981 0.541221 -0.512371 
0.505429 0.850945 -0.174534 
0.608366 0.178057 -0.782162 
0.187251 0.882066 -0.443063 
0.174554 0.477306 -0.863085 
0.561004 0.688103 -0.475347 
0.154165 0.958630 -0.257888 
0.396387 0.140929 -0.911118 
0.129499 0.324490 -0.936559 
0.630122 0.707013 -0.340571 
0.120427 0.628133 -0.771336 
0.172636 0.758778 -0.634037 
0.306938 0.628263 -0.721392 
0.859700 0.488625 -0.176756 
0.615445 0.396657 -0.691974 
0.380989 0.770869 -0.522266 
0.765488 0.557350 -0.341825 
0.126896 0.989718 -0.112693 
0.291271 0.950760 -0.142628 
0.710252 0.693690 -0.153418 
0.950860 0.148181 -0.291433 
0.479711 0.307848 -0.828548 
0.859475 0.412790 -0.322010 
0.882155 0.172227 -0.455058 
0.942486 0.294376 -0.182968 
0.900603 0.285844 -0.346669 
0.985178 0.129388 -0.137787 
0.731283 0.387368 -0.575357 
0.455483 0.459015 0.751033 
0.450688 0.806358 0.378078 
0.828322 0.412038 0.364947 
0.326604 0.312960 0.881654 
0.302827 0.907599 0.292670 
0.903652 0.338300 0.248552 
0.961122 0.168872 0.203245 
0.547640 0.632461 0.537171 
0.103432 0.480425 0.864865 
0.746686 0.166130 0.628078 
0.435910 0.159379 0.873806 
0.428712 0.886990 0.179018 
0.864024 0.473843 0.161599 
0.255408 0.140778 0.947481 
0.253954 0.959710 0.139528 
0.937873 0.323065 0.117040 
0.606568 0.158956 0.764380 
0.509329 0.290849 0.796898 
0.313665 0.628637 0.703276 
0.775299 0.622711 0.108547 
0.668485 0.725364 0.164489 
0.583699 0.494217 0.631432 
0.189532 0.753784 0.624078 
0.757606 0.578677 0.291637 
0.626873 0.686010 0.360505 
0.386240 0.719921 0.568845 
0.551332 0.805411 0.217569 
0.110303 0.989396 0.121988 
0.106277 0.122666 0.980313 
0.461123 0.594464 0.648190 
0.146352 0.612859 0.770556 
0.698990 0.506803 0.491101 
0.636778 0.349570 0.672856 
0.151958 0.308738 0.931652 
0.164534 0.951533 0.266065 
0.779024 0.319570 0.523545 
0.834674 0.140345 0.515530 
0.213965 0.866302 0.449426 
0.882633 0.233456 0.391547 
0.251164 0.476114 0.834223 
0.509555 -0.790069 0.338471 
0.323491 -0.373443 0.861347 
0.325161 -0.876557 0.357291 
0.143989 -0.466837 0.868310 
0.506537 -0.158998 0.835185 
0.425647 -0.887406 0.185572 
0.602133 -0.547541 0.570707 
0.260339 -0.175485 0.941239 
0.226702 -0.960401 0.178504 
0.911745 -0.374766 0.157013 
0.764585 -0.401449 0.490451 
0.737198 -0.661391 0.136742 
0.863795 -0.189101 0.450664 
0.952795 -0.181941 0.227802 
0.500550 -0.322848 0.792041 
0.563080 -0.677915 0.465578 
0.610082 -0.776782 0.159186 
0.705483 -0.638863 0.299029 
[...]
POINT_DATA 1108
SCALARS u float 1
LOOKUP_TABLE default
0.006172
0.006115
0.003693
0.003777
0.007442
0.007406
0.004115
0.004114
0.003512
0.003472
0.005715
0.005748
0.006255
0.006210
0.005988
0.005711
0.005189
0.004731
0.004222
0.003292
0.003264
0.003622
0.004177
0.004722
0.005371
0.005807
0.006199
0.006141
0.005903
0.005626
0.005217
0.004786
0.004195
0.003391
0.003371
0.003703
0.004167
0.004730
0.005380
0.005822
0.007115
0.006572
0.005857
0.005247
0.004870
0.004423
0.004117
0.003445
0.003518
0.004194
0.005144
0.006134
0.006976
0.007362
0.007099
0.006466
0.005896
0.005273
0.004845
0.004439
0.004128
0.003429
0.003593
0.004178
0.005156
0.006190
0.006945
0.007363
0.006886
0.008563
0.010169
0.011163
0.011306
0.010513
0.008994
0.006306
0.006271
0.006924
0.007557
0.007795
0.007185
0.006429
0.006843
0.008490
0.010087
0.011093
0.011345
0.010523
0.008980
0.006267
0.006243
0.006857
0.007523
0.007791
0.007218
0.006416
0.004164
0.004229
0.004187
0.004214
0.004213
0.004031
0.004029
0.003932
0.003762
0.003262
0.003034
0.002925
0.002819
0.002941
0.003301
0.003462
0.003679
0.003911
0.004179
0.004199
0.004153
0.004127
0.004101
0.003987
0.004008
0.003917
0.003779
0.003288
0.003132
0.002989
0.002882
0.002956
0.003349
0.003477
0.003679
0.003928
0.003150
0.002727
0.002591
0.002901
0.003639
0.004555
0.005210
0.005681
0.005843
0.005414
0.004868
0.004344
0.003889
0.003645
0.003502
0.003741
0.003954
0.003784
0.003112
0.002777
0.002390
0.002888
0.003647
0.004543
0.005213
0.005660
0.005845
0.005435
0.004915
0.004337
0.003871
0.003617
0.003509
0.003762
0.003961
0.003808
0.004721
0.006007
0.007083
0.007470
0.007034
0.006329
0.005222
0.004204
0.004338
0.007515
0.009148
0.010459
0.010947
0.010474
0.009661
0.008305
0.006423
0.004663
0.004764
0.006021
0.007109
0.007427
0.007026
0.006326
0.005194
0.004153
0.004352
0.007463
0.009114
0.010506
0.010848
0.010415
0.009573
0.008205
0.006383
0.004651
0.006292
0.003981
0.005508
0.006310
0.003491
0.006573
0.005059
0.005074
0.004875
0.006774
0.007151
0.003711
0.006478
0.006870
0.005109
0.003729
0.004274
0.005522
0.007455
0.004409
0.005997
0.004759
0.003373
0.005715
0.006158
0.003308
0.006217
0.004296
0.005669
0.006233
0.004285
0.005421
0.005947
0.004843
0.005947
0.003390
0.004843
0.005817
0.006130
0.007182
0.006494
0.007817
0.006704
0.005725
0.006270
0.006334
0.007980
0.007586
0.005750
0.007415
0.005370
0.005945
0.007167
0.004841
0.006471
0.006252
0.006836
0.005643
0.005577
0.006272
0.006607
0.007710
0.006431
0.007292
0.004336
0.004922
0.006233
0.006986
0.007027
0.007260
0.007777
0.006612
0.007368
0.006368
0.007911
0.009668
0.005444
0.007966
0.009824
0.004225
0.007226
0.007147
0.007648
0.007340
0.010663
0.010848
0.004556
0.006429
0.009669
0.004043
0.006507
0.011380
0.010781
0.007574
0.005832
0.005568
0.009215
0.005831
0.006680
0.006479
0.006672
0.005093
0.003622
0.008371
0.008305
0.006765
0.008420
0.010353
0.008476
0.003720
0.009593
0.009918
0.004541
0.008617
0.008496
0.004485
0.008623
0.003939
0.006938
0.010688
0.003557
0.007648
0.009179
0.003528
0.005901
0.008358
0.004633
0.008931
0.006991
0.009742
0.005851
0.004109
0.005560
0.008120
0.007777
0.004852
0.004115
0.005028
0.005268
0.006551
0.010331
0.004310
0.008005
0.006983
0.006447
0.009418
0.005980
0.005867
0.007145
0.010808
0.009956
0.007351
0.003628
0.007232
0.006537
0.007726
0.006793
0.005792
0.006262
0.006305
0.007938
0.007630
0.005812
0.007512
0.005372
0.005982
0.007057
0.004795
0.006497
0.006250
0.006831
0.005612
0.005570
0.006280
0.006482
0.007747
0.006445
0.007246
0.004334
0.004952
0.006179
0.006928
0.007026
0.007273
0.007744
0.006524
0.007318
0.006347
0.007961
0.009489
0.005383
0.007823
0.009834
0.004263
0.007172
0.007109
0.007669
0.007309
0.010653
0.010836
0.004580
0.006370
0.009631
0.004021
0.006451
0.011259
0.010757
0.007467
0.005743
0.005589
0.009173
0.005682
0.006647
0.006468
0.006646
0.005117
0.003661
0.008377
0.008122
0.006751
0.008367
0.010261
0.008503
0.003786
0.009504
0.009815
0.004569
0.008605
0.008492
0.004449
0.008602
0.003925
0.006949
0.010750
0.003513
0.007624
0.009178
0.003480
0.005892
0.008304
0.004623
0.008885
0.006948
0.009697
0.005868
0.004038
0.005526
0.008068
0.007730
0.004823
0.004124
0.005036
0.005274
0.006536
0.010299
0.004316
0.007986
0.006929
0.006368
0.009375
0.005923
0.005854
0.007102
0.010785
0.009978
0.007284
0.003582
0.006294
0.003979
0.005548
0.006339
0.003508
0.006575
0.005054
0.005083
0.004883
0.006807
0.007164
0.003596
0.006438
0.006867
0.005092
0.003675
0.004158
0.005532
0.007463
0.004378
0.005972
0.004739
0.003374
0.005726
0.006155
0.003257
0.006250
0.004353
0.005659
0.006277
0.004311
0.005452
0.005971
0.004888
0.005942
0.003348
0.004889
0.005841
0.006146
0.004577
0.006963
0.007344
0.005225
0.002707
0.005162
0.002888
0.007794
0.004153
0.003239
0.007035
0.009485
0.003838
0.005124
0.008725
0.003110
0.010380
0.004858
0.003114
0.004689
0.003596
0.002590
0.006779
0.003363
0.006124
0.005924
0.004084
0.002874
0.005106
0.003443
0.007758
0.008371
0.005647
0.005490
0.007198
0.003068
0.006458
0.010023
0.003335
0.009540
0.006220
0.010568
0.003867
0.008200
0.003160
0.006808
0.002812
0.003460
0.002673
0.004523
0.002621
0.006330
0.004387
0.003486
0.004207
0.004140
0.008016
0.009036
0.002944
0.009540
0.005859
0.008548
0.006766
0.006838
0.005027
0.005216
0.006256
0.004824
0.005783
0.004301
0.004264
0.004665
0.004302
0.007603
0.005073
0.004679
0.004583
0.007608
0.006124
0.004042
0.006506
0.006088
0.005012
0.005180
0.004560
0.006651
0.004169
0.007087
0.004735
0.005052
0.004266
0.005322
0.006076
0.005793
0.007085
0.007439
0.006613
0.007161
0.005998
0.004112
0.007486
0.004909
0.006796
0.004101
0.007111
0.005500
0.007680
0.005397
0.007092
0.005807
0.005059
0.005534
0.006095
0.006619
0.007387
0.004433
0.003833
0.006148
0.007717
0.005561
0.004885
0.004839
0.004309
0.004111
0.009198
0.005941
0.003151
0.009187
0.006510
0.008437
0.005533
0.002917
0.008216
0.005274
0.003196
0.004226
0.005785
0.004279
0.004199
0.006342
0.003469
0.003164
0.008770
0.010300
0.010812
0.009109
0.004424
0.006996
0.002827
0.007688
0.009720
0.007069
0.004424
0.007115
0.004222
0.005615
0.004984
0.006408
0.007052
0.006946
0.009159
0.003817
0.004958
0.003698
0.003755
0.004015
0.003655
0.007478
0.005166
0.008193
0.005467
0.010080
0.010792
0.010103
0.007968
0.007521
0.008703
0.004334
0.006881
0.007492
0.005937
0.003212
0.010275
0.003386
0.002652
0.003414
0.005796
0.004380
0.003288
0.003974
0.005691
0.003904
0.005102
0.004160
0.005017
0.003212
0.004317
0.003101
0.003893
0.003704
0.004117
0.002599
0.003399
0.006526
0.005262
0.005539
0.006996
0.004276
0.004149
0.003271
0.005063
0.004248
0.006196
0.004699
0.004241
0.003706
0.002829
0.003117
0.003723
0.004381
0.005080
0.004316
0.005824
0.004181
0.003438
0.003490
0.003080
0.003658
0.002849
0.003455
0.003480
0.004908
0.003642
0.005118
0.006360
0.007019
0.004679
0.006405
0.004735
0.005751
0.004230
0.004863
0.005090
0.003883
0.003117
0.006514
0.003076
0.003162
0.005220
0.008159
0.009000
0.005707
0.002903
0.005514
0.002988
0.004385
0.003445
0.005085
0.010054
0.010522
0.006492
0.003385
0.008922
0.006193
0.010784
0.003843
0.005058
0.004198
0.003442
0.002735
0.006975
0.010010
0.006875
0.004476
0.003265
0.003046
0.005251
0.008890
0.007496
0.008680
0.009608
0.007115
0.006734
0.008260
0.003906
0.006959
0.003857
0.010197
0.010069
0.007636
0.010815
0.004934
0.008673
0.004169
0.007229
0.002979
0.003826
0.003787
0.005110
0.003211
0.005468
0.006974
0.003412
0.004323
0.008692
0.005413
0.008773
0.003630
0.007600
0.006802
0.005784
0.004358
0.003268
0.003937
0.005681
0.003888
0.005104
0.003197
0.004149
0.005040
0.003230
0.003164
0.004322
0.002997
0.003705
0.004147
0.002579
0.003426
0.006524
0.005225
0.005496
0.006988
0.004269
0.004149
0.002843
0.005058
0.004211
0.006214
0.004697
0.004245
0.003825
0.003616
0.004470
0.005100
0.004261
0.005822
0.004130
0.003451
0.003572
0.003018
0.004071
0.002821
0.003511
0.003434
0.004910
0.003610
0.005136
0.006335
0.006995
0.004628
0.006397
0.004704
0.005755
0.004247
0.004861
0.003812
0.005117
0.003581
0.006489
0.002842
0.003226
0.003178
0.004568
0.006962
0.007935
0.005257
0.002723
0.005189
0.002923
0.004168
0.003287
0.009538
0.003842
0.009874
0.005112
0.008777
0.003108
0.010293
0.004852
0.003141
0.004723
0.003611
0.002622
0.006839
0.003368
0.009414
0.005917
0.004091
0.002911
0.005130
0.003473
0.007659
0.006248
0.008428
0.008649
0.005704
0.005491
0.007269
0.003059
0.006518
0.010071
0.003324
0.009151
0.006224
0.010580
0.003845
0.008256
0.003153
0.006873
0.002803
0.003497
0.002714
0.004539
0.002642
0.006376
0.004366
0.003518
0.004230
0.008126
0.004151
0.008035
0.002967
0.006982
0.006518
0.006112
0.007210
0.006927
0.005232
0.004493
0.004821
0.004200
0.005983
0.004244
0.004448
0.004928
0.006021
0.007468
0.007630
0.005093
0.006241
0.004872
0.007529
0.005178
0.005608
0.004518
0.004100
0.004737
0.004631
0.006903
0.007052
0.004580
0.004117
0.004288
0.004155
0.007272
0.006966
0.007698
0.007385
0.006910
0.005758
0.006029
0.004838
0.006999
0.006148
0.007527
0.004888
0.007624
0.005954
0.006565
0.005565
0.005259
0.004980
0.004158
0.005215
0.004446
0.006611
0.006719
0.004706
0.003852
0.007075
0.006476
0.006117
0.004090
0.004984
0.006108
0.004630
0.005387
0.005520
0.008605
0.006068
0.006626
0.007577
0.007411
0.002747
0.001426
0.005500
0.005139
0.006238
0.005527
0.009073
0.005266
0.005670
0.006092
0.009231
0.007026
0.001273
0.003558
0.004407
0.004237
0.005332
0.008562
0.007276
0.008151
0.007080
0.007579
0.006187
0.009176
0.008836
0.007974
0.007610
0.004942
0.009362
0.009187
0.003558
0.007259
0.003233
0.007031
0.010540
0.005819
0.007481
0.006140
0.010071
0.004264
0.004304
0.009096
0.004636
0.005444
0.008422
0.010147
0.007030
0.006830
0.006223
0.006751
0.004930
0.006877
0.008056
0.006881
0.006944
0.006001
0.006462
0.006642
0.006944
0.008756
0.010369
0.005349
0.007289
0.008623
0.008773
0.008790
0.009792
0.005938
0.007133
0.008073
0.009729
0.008732
0.008327
0.007659
0.008894
0.008395
0.010312
0.009203
0.007444
0.003891
0.004284
0.003379
0.005536
0.003964
0.003853
0.006709
0.007564
0.006392
0.006601
0.007057
0.007259
0.003470
0.002660
0.006885
0.002074
