# vtk DataFile Version 2.0
Unstructured Grid Example
ASCII
DATASET UNSTRUCTURED_GRID
POINTS 1108 float
0.997183 -0.001078 0.026590 
-0.997182 0.001046 -0.026339 
-0.001381 0.984573 0.004061 
0.001193 -0.984225 -0.004220 
0.026166 0.004090 1.018429 
-0.026054 -0.004239 -1.018280 
1.197310 -0.000750 0.017620 
-1.197354 0.000478 -0.017634 
-0.000978 1.185058 0.002755 
0.000900 -1.185277 -0.002989 
0.017477 0.002760 1.217344 
-0.017568 -0.002862 -1.217438 
0.977610 0.191912 0.026741 
0.920116 0.376950 0.026034 
0.826940 0.547123 0.024128 
0.702123 0.696249 0.021685 
0.550765 0.818318 0.017610 
0.378838 0.909030 0.013618 
0.192486 0.965114 0.009097 
-0.195179 0.966531 -0.000689 
-0.381351 0.911098 -0.005923 
-0.553673 0.820699 -0.011269 
-0.704617 0.698837 -0.015919 
-0.828413 0.549778 -0.019395 
-0.921429 0.379446 -0.022929 
-0.978176 0.193971 -0.025016 
-0.977594 -0.192127 -0.026520 
-0.920462 -0.377157 -0.025817 
-0.827614 -0.547426 -0.023952 
-0.702757 -0.696429 -0.021496 
-0.551097 -0.818307 -0.017840 
-0.378999 -0.909001 -0.013982 
-0.192505 -0.965212 -0.009034 
0.194803 -0.966102 0.000704 
0.381285 -0.910562 0.005852 
0.553556 -0.820500 0.011550 
0.704664 -0.698797 0.015852 
0.828453 -0.549710 0.019420 
0.921531 -0.379499 0.022985 
0.978162 -0.194054 0.025084 
0.025797 -0.190000 0.996914 
0.024642 -0.376143 0.936597 
0.022239 -0.546746 0.839975 
0.019248 -0.695787 0.711445 
0.015652 -0.817372 0.557021 
0.010910 -0.908156 0.381450 
0.006077 -0.964270 0.192105 
-0.003941 -0.967355 -0.200306 
-0.008894 -0.913907 -0.390036 
-0.013657 -0.825319 -0.565880 
-0.017616 -0.704595 -0.720548 
-0.020880 -0.555882 -0.847934 
-0.023663 -0.384825 -0.942589 
-0.025221 -0.198449 -1.000060 
-0.025762 0.190068 -0.996856 
-0.024364 0.376171 -0.936116 
-0.022433 0.546686 -0.839911 
-0.019362 0.695841 -0.711665 
-0.015606 0.817499 -0.557162 
-0.011092 0.908188 -0.381611 
-0.006308 0.964290 -0.192190 
0.003722 0.967342 0.200227 
0.008995 0.913761 0.390388 
0.013666 0.825394 0.565793 
0.017759 0.704485 0.720425 
0.021070 0.555809 0.848088 
0.023744 0.384680 0.942289 
0.025392 0.198297 0.999866 
0.988347 -0.000258 0.223970 
0.941107 0.000647 0.415560 
0.856440 0.001257 0.591883 
0.735974 0.001912 0.745904 
0.585656 0.002885 0.870058 
0.412046 0.003361 0.958577 
0.222596 0.003706 1.008173 
-0.169256 0.004075 0.988753 
-0.355994 0.004465 0.921263 
-0.528176 0.003905 0.819835 
-0.679414 0.003645 0.689979 
-0.805453 0.003419 0.534277 
-0.903371 0.002384 0.359357 
-0.968024 0.001784 0.170375 
-0.988382 0.000203 -0.223766 
-0.940892 -0.000630 -0.415320 
-0.855968 -0.001180 -0.591775 
-0.735651 -0.001901 -0.745766 
-0.585433 -0.002664 -0.870461 
-0.412061 -0.003285 -0.958631 
-0.222531 -0.003779 -1.008141 
0.169477 -0.004316 -0.988755 
0.356107 -0.004462 -0.921352 
0.528454 -0.004061 -0.819978 
0.679615 -0.003722 -0.689959 
0.805428 -0.003379 -0.534323 
0.903345 -0.002566 -0.359212 
0.968276 -0.001908 -0.170320 
1.182203 0.185652 0.017679 
1.137564 0.367249 0.017596 
1.064479 0.539626 0.016748 
0.965695 0.698162 0.015998 
0.843196 0.838929 0.014596 
0.699956 0.959430 0.012113 
0.540055 1.055912 0.010290 
0.367183 1.126581 0.007849 
0.185494 1.170131 0.005761 
-0.187382 1.171089 -0.000240 
-0.369030 1.128684 -0.003388 
-0.542173 1.058014 -0.005359 
-0.701893 0.961920 -0.007630 
-0.845434 0.841330 -0.010060 
-0.968085 0.699800 -0.012907 
-1.066115 0.541386 -0.014289 
-1.138917 0.368628 -0.015623 
-1.182889 0.186864 -0.016772 
-1.182310 -0.185640 -0.017759 
-1.137901 -0.367381 -0.017556 
-1.065016 -0.539802 -0.016784 
-0.966221 -0.698488 -0.015874 
-0.843217 -0.839164 -0.014152 
-0.699978 -0.959652 -0.012056 
-0.540197 -1.055889 -0.010171 
-0.367267 -1.126657 -0.007893 
-0.185513 -1.170056 -0.005784 
0.187163 -1.170985 0.000183 
0.368840 -1.128245 0.003296 
0.541882 -1.057812 0.005443 
0.701716 -0.961756 0.007796 
0.845308 -0.841439 0.010177 
0.968042 -0.699872 0.013158 
1.066118 -0.541450 0.014370 
1.138942 -0.368704 0.015637 
1.182868 -0.187008 0.016850 
-0.002285 -1.172154 -0.190950 
-0.004646 -1.131033 -0.374489 
-0.007331 -1.062539 -0.550079 
-0.009282 -0.967704 -0.713236 
-0.011852 -0.848455 -0.858939 
-0.014151 -0.707763 -0.984378 
-0.015153 -0.548107 -1.085627 
-0.016210 -0.374346 -1.159472 
-0.017118 -0.190852 -1.203636 
-0.017288 0.185040 -1.200873 
-0.016827 0.368054 -1.153700 
-0.015978 0.540606 -1.078256 
-0.014737 0.699091 -0.976114 
-0.012973 0.839876 -0.851094 
-0.010476 0.959846 -0.704738 
-0.008552 1.055562 -0.542855 
-0.006632 1.125625 -0.368539 
-0.003532 1.169455 -0.184892 
0.002408 1.172383 0.191080 
0.004606 1.130838 0.374692 
0.006787 1.062917 0.549453 
0.009235 0.967800 0.713238 
0.011853 0.848345 0.858990 
0.014404 0.707739 0.984040 
0.015279 0.548052 1.085540 
0.016343 0.374321 1.159235 
0.017192 0.190940 1.203563 
0.017466 -0.185191 1.200839 
0.016830 -0.367909 1.154008 
0.015959 -0.540782 1.078309 
0.014793 -0.699203 0.975835 
0.012894 -0.839918 0.850885 
0.010415 -0.959760 0.704571 
0.008515 -1.055449 0.542748 
0.006582 -1.125596 0.368391 
0.003460 -1.169389 0.184605 
-1.173621 0.001151 0.170901 
-1.122540 0.001268 0.352771 
-1.045491 0.001931 0.525377 
-0.945449 0.001910 0.685306 
-0.824056 0.002715 0.830536 
-0.682083 0.002721 0.956517 
-0.524348 0.002774 1.059875 
-0.352821 0.002688 1.140250 
-0.170983 0.002870 1.193308 
0.207201 0.002475 1.211226 
0.393246 0.002448 1.173885 
0.570958 0.002144 1.106176 
0.734215 0.001718 1.008451 
0.877270 0.001428 0.883653 
0.997961 0.001179 0.737222 
1.092324 0.000500 0.572391 
1.156926 0.000021 0.393847 
1.191722 -0.000319 0.206863 
1.173699 -0.001238 -0.170627 
1.122392 -0.001621 -0.352860 
1.045354 -0.001963 -0.525374 
0.945626 -0.002063 -0.685395 
0.824003 -0.002647 -0.830661 
0.682032 -0.002555 -0.956599 
0.524411 -0.002734 -1.060025 
0.353065 -0.002788 -1.140194 
0.170978 -0.002800 -1.193456 
-0.207044 -0.002427 -1.211065 
-0.392985 -0.002393 -1.173889 
-0.570972 -0.002252 -1.106411 
-0.734102 -0.002135 -1.007971 
-0.877117 -0.001412 -0.883449 
-0.997658 -0.001122 -0.736982 
-1.091920 -0.000428 -0.572161 
-1.156749 0.000017 -0.393756 
-1.191727 0.000278 -0.206808 
0.799471 -0.391535 -0.396358 
0.403561 -0.783831 -0.439039 
0.370413 -0.376249 -0.835999 
0.875670 -0.295299 -0.315916 
0.287147 -0.882637 -0.333457 
0.657816 -0.332804 -0.634985 
0.539208 -0.622632 -0.531305 
0.862750 -0.475114 -0.088608 
0.161355 -0.616587 -0.771497 
0.586321 -0.172030 -0.758976 
0.851275 -0.155943 -0.439206 
0.194000 -0.843032 -0.483534 
0.938464 -0.138030 -0.242625 
0.781068 -0.289592 -0.498822 
0.668768 -0.634936 -0.329883 
0.456834 -0.849920 -0.194702 
0.620600 -0.746836 -0.162294 
0.504606 -0.472924 -0.695797 
0.771391 -0.142417 -0.567242 
0.544280 -0.742997 -0.339670 
0.977627 -0.122641 -0.088899 
0.763302 -0.608880 -0.135270 
0.146030 -0.935761 -0.280128 
0.928324 -0.303613 -0.136699 
0.715700 -0.463349 -0.471228 
0.264500 -0.937488 -0.150748 
0.524704 -0.299311 -0.769881 
0.316662 -0.698514 -0.625412 
0.819169 -0.462641 -0.271676 
0.472465 -0.182431 -0.840367 
0.131455 -0.752269 -0.642165 
0.173241 -0.479733 -0.863133 
0.153302 -0.319376 -0.941208 
0.330884 -0.552593 -0.752612 
0.616450 -0.475530 -0.588538 
0.122141 -0.969909 -0.127288 
0.428734 -0.595890 -0.656397 
0.304323 -0.217399 -0.920717 
0.179902 -0.135794 -0.977674 
0.478616 0.568283 -0.624511 
0.488715 0.767292 -0.344502 
0.785302 0.361992 -0.433116 
0.375894 0.456677 -0.778061 
0.338520 0.868136 -0.290835 
0.265343 0.304684 -0.902714 
0.144559 0.157922 -0.979488 
0.734934 0.208309 -0.590351 
0.650129 0.523705 -0.488798 
0.492938 0.830826 -0.155028 
0.574350 0.168888 -0.764166 
0.169366 0.860748 -0.436240 
0.145404 0.465087 -0.865716 
0.536355 0.667179 -0.454933 
0.142831 0.936711 -0.250263 
0.363207 0.133009 -0.905808 
0.098836 0.315452 -0.946080 
0.609453 0.687595 -0.317631 
0.094084 0.613678 -0.773233 
0.149396 0.740594 -0.630230 
0.279418 0.610905 -0.713567 
0.844541 0.476059 -0.147517 
0.582961 0.381831 -0.671549 
0.358130 0.749438 -0.508285 
0.742255 0.540849 -0.315336 
0.120753 0.968863 -0.104780 
0.282070 0.929849 -0.129677 
0.697273 0.677138 -0.127662 
0.930027 0.142098 -0.261129 
0.446781 0.295800 -0.815275 
0.836411 0.399973 -0.293653 
0.853067 0.164131 -0.426592 
0.927065 0.286156 -0.152321 
0.876501 0.275875 -0.317255 
0.972975 0.124948 -0.106391 
0.700234 0.373085 -0.550589 
0.485942 0.464022 0.792361 
0.462385 0.799944 0.403882 
0.846525 0.411729 0.403351 
0.359890 0.318458 0.921765 
0.309349 0.896236 0.311012 
0.915450 0.336143 0.285190 
0.971258 0.167555 0.239981 
0.568862 0.632876 0.572018 
0.131326 0.483201 0.892216 
0.779268 0.169156 0.674618 
0.472012 0.164389 0.918770 
0.431130 0.873861 0.199335 
0.869234 0.468572 0.195088 
0.289636 0.145742 0.985761 
0.254835 0.943465 0.153690 
0.941459 0.319081 0.151343 
0.642791 0.163358 0.812907 
0.543964 0.296288 0.842500 
0.338456 0.630600 0.735131 
0.775873 0.613908 0.138389 
0.671212 0.716069 0.192573 
0.610981 0.497656 0.672188 
0.209731 0.751765 0.647655 
0.768897 0.574944 0.325235 
0.640126 0.682187 0.392201 
0.405927 0.718928 0.598489 
0.555857 0.795532 0.242477 
0.111161 0.972148 0.130664 
0.138942 0.127449 1.010392 
0.486278 0.597018 0.684579 
0.171187 0.614003 0.796720 
0.721624 0.508079 0.529886 
0.668316 0.353812 0.718009 
0.183412 0.313119 0.963849 
0.170404 0.937672 0.279002 
0.806685 0.321996 0.566541 
0.863812 0.142422 0.559655 
0.227120 0.858623 0.468266 
0.903949 0.233950 0.432278 
0.280639 0.480441 0.868389 
0.521261 -0.779970 0.356733 
0.355657 -0.369549 0.894007 
0.336561 -0.862587 0.368084 
0.173458 -0.459930 0.889624 
0.542740 -0.156451 0.879167 
0.430541 -0.873257 0.197234 
0.627060 -0.544441 0.602866 
0.294263 -0.171333 0.976318 
0.232006 -0.942762 0.182377 
0.918278 -0.371540 0.187645 
0.789287 -0.399709 0.527540 
0.741048 -0.653836 0.159964 
0.889025 -0.188034 0.491076 
0.964525 -0.180836 0.263191 
0.534123 -0.320638 0.831660 
0.581057 -0.671833 0.490363 
0.614422 -0.766278 0.177931 
0.717863 -0.632545 0.325238 
[...]
POINT_DATA 1108
SCALARS u float 1
LOOKUP_TABLE default
0.026760
0.026510
0.016012
0.016373
0.032264
0.032108
0.017840
0.017838
0.015225
0.015051
0.024776
0.024918
0.027116
0.026923
0.025962
0.024758
0.022498
0.020512
0.018306
0.014271
0.014150
0.015704
0.018110
0.020471
0.023286
0.025176
0.026875
0.026623
0.025591
0.024393
0.022617
0.020747
0.018189
0.014703
0.014614
0.016056
0.018064
0.020508
0.023324
0.025242
0.030847
0.028491
0.025392
0.022747
0.021115
0.019177
0.017850
0.014937
0.015252
0.018183
0.022300
0.026592
0.030242
0.031920
0.030776
0.028031
0.025562
0.022861
0.021006
0.019246
0.017897
0.014865
0.015577
0.018116
0.022352
0.026836
0.030111
0.031923
0.029854
0.037123
0.044088
0.048396
0.049016
0.045578
0.038992
0.027341
0.027186
0.030017
0.032765
0.033793
0.031151
0.027872
0.029666
0.036810
0.043730
0.048093
0.049186
0.045624
0.038931
0.027169
0.027067
0.029730
0.032614
0.033779
0.031291
0.027815
0.018054
0.018333
0.018152
0.018269
0.018265
0.017478
0.017466
0.017046
0.016310
0.014143
0.013154
0.012683
0.012220
0.012751
0.014311
0.015011
0.015950
0.016956
0.018117
0.018204
0.018004
0.017892
0.017781
0.017287
0.017376
0.016982
0.016385
0.014253
0.013578
0.012959
0.012494
0.012815
0.014518
0.015072
0.015950
0.017029
0.013658
0.011823
0.011234
0.012577
0.015775
0.019747
0.022588
0.024629
0.025332
0.023472
0.021104
0.018832
0.016861
0.015803
0.015184
0.016220
0.017143
0.016407
0.013492
0.012041
0.010363
0.012520
0.015811
0.019697
0.022602
0.024539
0.025341
0.023564
0.021308
0.018803
0.016783
0.015683
0.015212
0.016309
0.017171
0.016507
0.020467
0.026041
0.030709
0.032386
0.030495
0.027440
0.022641
0.018228
0.018808
0.032582
0.039659
0.045345
0.047462
0.045408
0.041885
0.036007
0.027846
0.020217
0.020655
0.026106
0.030819
0.032201
0.030459
0.027425
0.022517
0.018005
0.018866
0.032356
0.039512
0.045549
0.047031
0.045153
0.041504
0.035571
0.027672
0.020165
0.027279
0.017257
0.023878
0.027358
0.015135
0.028498
0.021933
0.021996
0.021135
0.029370
0.031002
0.016089
0.028086
0.029783
0.022149
0.016166
0.018528
0.023939
0.032320
0.019114
0.026001
0.020632
0.014624
0.024776
0.026699
0.014342
0.026953
0.018626
0.024576
0.027021
0.018577
0.023503
0.025781
0.020995
0.025783
0.014697
0.020996
0.025218
0.026578
0.031139
0.028155
0.033889
0.029066
0.024819
0.027184
0.027461
0.034596
0.032889
0.024930
0.032146
0.023281
0.025772
0.031071
0.020987
0.028052
0.027104
0.029639
0.024465
0.024177
0.027192
0.028644
0.033427
0.027881
0.031615
0.018801
0.021339
0.027021
0.030288
0.030466
0.031474
0.033719
0.028667
0.031945
0.027608
0.034297
0.041915
0.023604
0.034534
0.042589
0.018316
0.031326
0.030985
0.033155
0.031824
0.046229
0.047033
0.019754
0.027871
0.041921
0.017526
0.028212
0.049336
0.046741
0.032839
0.025286
0.024140
0.039950
0.025281
0.028961
0.028088
0.028927
0.022081
0.015704
0.036290
0.036006
0.029327
0.036504
0.044887
0.036748
0.016128
0.041590
0.043000
0.019687
0.037357
0.036834
0.019443
0.037383
0.017076
0.030081
0.046335
0.015421
0.033158
0.039796
0.015294
0.025585
0.036238
0.020088
0.038722
0.030308
0.042236
0.025365
0.017813
0.024106
0.035202
0.033716
0.021035
0.017839
0.021799
0.022839
0.028399
0.044788
0.018684
0.034705
0.030273
0.027952
0.040833
0.025927
0.025435
0.030978
0.046858
0.043165
0.031871
0.015731
0.031353
0.028341
0.033496
0.029451
0.025112
0.027147
0.027334
0.034413
0.033080
0.025197
0.032567
0.023291
0.025934
0.030596
0.020787
0.028168
0.027095
0.029615
0.024332
0.024150
0.027228
0.028101
0.033589
0.027940
0.031412
0.018791
0.021468
0.026790
0.030035
0.030460
0.031533
0.033572
0.028285
0.031726
0.027517
0.034515
0.041141
0.023340
0.033918
0.042637
0.018482
0.031096
0.030819
0.033247
0.031689
0.046183
0.046979
0.019857
0.027616
0.041757
0.017434
0.027968
0.048814
0.046638
0.032372
0.024900
0.024229
0.039771
0.024635
0.028817
0.028043
0.028815
0.022186
0.015874
0.036317
0.035214
0.029270
0.036275
0.044486
0.036866
0.016416
0.041206
0.042552
0.019810
0.037306
0.036816
0.019289
0.037295
0.017018
0.030127
0.046604
0.015231
0.033051
0.039790
0.015087
0.025543
0.036003
0.020041
0.038521
0.030124
0.042043
0.025439
0.017506
0.023959
0.034979
0.033512
0.020911
0.017881
0.021833
0.022865
0.028338
0.044651
0.018712
0.034623
0.030041
0.027607
0.040643
0.025678
0.025379
0.030792
0.046758
0.043259
0.031578
0.015531
0.027289
0.017252
0.024054
0.027483
0.015209
0.028507
0.021910
0.022036
0.021169
0.029512
0.031060
0.015591
0.027912
0.029771
0.022074
0.015932
0.018027
0.023984
0.032356
0.018980
0.025890
0.020547
0.014629
0.024826
0.026686
0.014121
0.027096
0.018871
0.024534
0.027213
0.018689
0.023639
0.025885
0.021193
0.025759
0.014516
0.021194
0.025323
0.026646
0.019842
0.030186
0.031839
0.022653
0.011738
0.022380
0.012522
0.033789
0.018005
0.014043
0.030501
0.041120
0.016641
0.022216
0.037828
0.013485
0.045004
0.021063
0.013501
0.020329
0.015592
0.011230
0.029389
0.014581
0.026549
0.025684
0.017706
0.012460
0.022137
0.014926
0.033635
0.036293
0.024481
0.023803
0.031206
0.013299
0.027998
0.043454
0.014458
0.041361
0.026968
0.045816
0.016766
0.035549
0.013699
0.029516
0.012190
0.015003
0.011589
0.019611
0.011361
0.027444
0.019019
0.015114
0.018241
0.017948
0.034753
0.039174
0.012765
0.041359
0.025401
0.037060
0.029334
0.029645
0.021792
0.022615
0.027122
0.020915
0.025071
0.018645
0.018486
0.020227
0.018651
0.032961
0.021994
0.020286
0.019870
0.032986
0.026551
0.017523
0.028205
0.026393
0.021728
0.022460
0.019767
0.028835
0.018076
0.030724
0.020530
0.021903
0.018496
0.023074
0.026343
0.025115
0.030716
0.032250
0.028669
0.031045
0.026006
0.017826
0.032454
0.021283
0.029465
0.017781
0.030830
0.023845
0.033295
0.023399
0.030747
0.025175
0.021932
0.023994
0.026423
0.028696
0.032026
0.019219
0.016618
0.026652
0.033457
0.024110
0.021178
0.020980
0.018680
0.017823
0.039876
0.025756
0.013662
0.039831
0.028225
0.036576
0.023987
0.012644
0.035619
0.022866
0.013856
0.018320
0.025080
0.018552
0.018206
0.027496
0.015039
0.013718
0.038024
0.044656
0.046876
0.039493
0.019181
0.030330
0.012258
0.033329
0.042142
0.030648
0.019179
0.030846
0.018302
0.024344
0.021607
0.027784
0.030572
0.030113
0.039708
0.016548
0.021497
0.016034
0.016279
0.017409
0.015844
0.032420
0.022395
0.035520
0.023701
0.043703
0.046789
0.043801
0.034545
0.032608
0.037730
0.018788
0.029833
0.032483
0.025740
0.013923
0.044547
0.014679
0.011498
0.014802
0.025130
0.018991
0.014257
0.017231
0.024671
0.016926
0.022119
0.018038
0.021750
0.013927
0.018716
0.013445
0.016879
0.016058
0.017849
0.011268
0.014736
0.028294
0.022814
0.024016
0.030332
0.018538
0.017990
0.014183
0.021949
0.018418
0.026864
0.020372
0.018386
0.016067
0.012265
0.013512
0.016142
0.018994
0.022026
0.018712
0.025250
0.018129
0.014905
0.015132
0.013352
0.015860
0.012352
0.014978
0.015085
0.021277
0.015791
0.022187
0.027573
0.030432
0.020284
0.027768
0.020530
0.024934
0.018340
0.021085
0.022069
0.016836
0.013515
0.028240
0.013335
0.013711
0.022630
0.035375
0.039019
0.024744
0.012586
0.023904
0.012953
0.019009
0.014935
0.022044
0.043590
0.045619
0.028144
0.014677
0.038680
0.026850
0.046752
0.016662
0.021928
0.018199
0.014922
0.011859
0.030239
0.043400
0.029805
0.019404
0.014157
0.013205
0.022764
0.038540
0.032497
0.037632
0.041656
0.030846
0.029197
0.035813
0.016936
0.030169
0.016723
0.044210
0.043654
0.033104
0.046887
0.021390
0.037599
0.018073
0.031340
0.012914
0.016588
0.016419
0.022156
0.013920
0.023707
0.030237
0.014791
0.018741
0.037684
0.023469
0.038036
0.015740
0.032949
0.029491
0.025078
0.018892
0.014169
0.017069
0.024631
0.016857
0.022129
0.013858
0.017989
0.021850
0.014004
0.013715
0.018738
0.012992
0.016061
0.017978
0.011181
0.014853
0.028283
0.022651
0.023826
0.030294
0.018506
0.017988
0.012328
0.021929
0.018255
0.026940
0.020363
0.018402
0.016582
0.015677
0.019378
0.022113
0.018472
0.025242
0.017907
0.014961
0.015488
0.013083
0.017648
0.012229
0.015221
0.014887
0.021289
0.015649
0.022267
0.027464
0.030326
0.020062
0.027735
0.020394
0.024949
0.018411
0.021076
0.016525
0.022183
0.015523
0.028131
0.012323
0.013987
0.013779
0.019802
0.030184
0.034400
0.022792
0.011806
0.022495
0.012674
0.018072
0.014250
0.041351
0.016655
0.042808
0.022164
0.038053
0.013476
0.044623
0.021037
0.013620
0.020478
0.015656
0.011368
0.029650
0.014604
0.040814
0.025651
0.017737
0.012620
0.022241
0.015057
0.033206
0.027089
0.036538
0.037498
0.024729
0.023808
0.031516
0.013264
0.028257
0.043661
0.014412
0.039673
0.026985
0.045870
0.016670
0.035795
0.013669
0.029798
0.012153
0.015159
0.011766
0.019680
0.011453
0.027644
0.018930
0.015253
0.018340
0.035231
0.017995
0.034834
0.012863
0.030271
0.028259
0.026500
0.031258
0.030032
0.022684
0.019478
0.020900
0.018207
0.025939
0.018401
0.019284
0.021364
0.026103
0.032375
0.033081
0.022079
0.027058
0.021124
0.032641
0.022450
0.024314
0.019588
0.017775
0.020538
0.020076
0.029926
0.030574
0.019854
0.017848
0.018592
0.018014
0.031529
0.030200
0.033374
0.032017
0.029959
0.024965
0.026138
0.020977
0.030345
0.026654
0.032632
0.021190
0.033054
0.025813
0.028464
0.024125
0.022801
0.021590
0.018028
0.022611
0.019274
0.028663
0.029131
0.020404
0.016699
0.030674
0.028074
0.026520
0.017732
0.021608
0.026480
0.020073
0.023353
0.023933
0.037305
0.026307
0.028727
0.032848
0.032131
0.011911
0.006183
0.023843
0.022278
0.027042
0.023962
0.039336
0.022830
0.024582
0.026412
0.040020
0.030461
0.005517
0.015425
0.019108
0.018368
0.023117
0.037121
0.031545
0.035339
0.030697
0.032859
0.026823
0.039781
0.038307
0.034570
0.032995
0.021428
0.040590
0.039828
0.015427
0.031470
0.014017
0.030485
0.045695
0.025230
0.032433
0.026618
0.043662
0.018486
0.018658
0.039437
0.020098
0.023604
0.036515
0.043990
0.030477
0.029611
0.026980
0.029267
0.021374
0.029817
0.034925
0.029834
0.030104
0.026017
0.028017
0.028795
0.030106
0.037960
0.044953
0.023192
0.031600
0.037386
0.038036
0.038109
0.042452
0.025742
0.030925
0.035001
0.042181
0.037857
0.036103
0.033206
0.038559
0.036397
0.044707
0.039899
0.032274
0.016871
0.018572
0.014647
0.023999
0.017185
0.016704
0.029087
0.032795
0.027714
0.028617
0.030594
0.031470
0.015045
0.011534
0.029849
0.008991
