# vtk DataFile Version 2.0
Unstructured Grid Example
ASCII
DATASET UNSTRUCTURED_GRID
POINTS 1108 float
0.998897 -0.001430 0.000235 
-0.998914 0.001409 -0.000221 
-0.001424 1.001478 -0.000390 
0.001423 -1.001488 0.000393 
0.000233 -0.000379 0.999565 
-0.000238 0.000394 -0.999618 
1.198965 -0.000945 0.000156 
-1.198965 0.000954 -0.000146 
-0.000943 1.201397 -0.000243 
0.000963 -1.201410 0.000257 
0.000151 -0.000253 1.199592 
-0.000148 0.000245 -1.199620 
0.979205 0.193765 0.000145 
0.921967 0.381454 0.000070 
0.829423 0.554513 -0.000004 
0.705120 0.706319 -0.000103 
0.553751 0.831140 -0.000193 
0.381043 0.924133 -0.000268 
0.193603 0.981653 -0.000330 
-0.196492 0.982721 -0.000422 
-0.384082 0.926149 -0.000447 
-0.556844 0.833852 -0.000445 
-0.708142 0.709363 -0.000428 
-0.832134 0.557600 -0.000402 
-0.923992 0.384460 -0.000356 
-0.980288 0.196649 -0.000295 
-0.979229 -0.193776 -0.000137 
-0.921983 -0.381461 -0.000077 
-0.829463 -0.554526 0.000012 
-0.705156 -0.706315 0.000109 
-0.553761 -0.831120 0.000191 
-0.381037 -0.924106 0.000264 
-0.193591 -0.981658 0.000339 
0.196504 -0.982730 0.000432 
0.384091 -0.926140 0.000453 
0.556854 -0.833856 0.000456 
0.708164 -0.709364 0.000436 
0.832135 -0.557602 0.000406 
0.924008 -0.384476 0.000367 
0.980295 -0.196668 0.000309 
0.000517 -0.195649 0.980516 
0.000766 -0.383448 0.923836 
0.000995 -0.556588 0.831657 
0.001176 -0.708360 0.707471 
0.001316 -0.832945 0.556027 
0.001400 -0.925474 0.383173 
0.001459 -0.982352 0.195527 
0.001349 -0.982061 -0.194729 
0.001225 -0.924874 -0.382318 
0.001044 -0.832149 -0.555172 
0.000826 -0.707519 -0.706648 
0.000593 -0.555738 -0.830945 
0.000319 -0.382637 -0.923335 
0.000032 -0.194849 -0.980285 
-0.000499 0.195630 -0.980550 
-0.000757 0.383441 -0.923880 
-0.000989 0.556576 -0.831654 
-0.001162 0.708346 -0.707458 
-0.001300 0.832932 -0.556020 
-0.001388 0.925462 -0.383165 
-0.001445 0.982352 -0.195522 
-0.001340 0.982063 0.194746 
-0.001218 0.924881 0.382343 
-0.001053 0.832183 0.555172 
-0.000831 0.707535 0.706653 
-0.000613 0.555745 0.830950 
-0.000334 0.382654 0.923314 
-0.000039 0.194873 0.980257 
0.979813 -0.001465 0.195223 
0.923076 -0.001462 0.382710 
0.830834 -0.001379 0.555506 
0.706662 -0.001270 0.706981 
0.555303 -0.001117 0.831281 
0.382578 -0.000884 0.923616 
0.195148 -0.000622 0.980440 
-0.194698 -0.000078 0.980257 
-0.382077 0.000177 0.923271 
-0.554807 0.000489 0.830836 
-0.706207 0.000720 0.706488 
-0.830439 0.000957 0.555006 
-0.922758 0.001149 0.382223 
-0.979644 0.001300 0.194756 
-0.979816 0.001452 -0.195208 
-0.923071 0.001459 -0.382695 
-0.830824 0.001367 -0.555491 
-0.706651 0.001264 -0.706974 
-0.555279 0.001095 -0.831296 
-0.382585 0.000856 -0.923647 
-0.195169 0.000623 -0.980492 
0.194677 0.000111 -0.980279 
0.382100 -0.000180 -0.923294 
0.554811 -0.000478 -0.830850 
0.706190 -0.000725 -0.706484 
0.830414 -0.000962 -0.555000 
0.922751 -0.001171 -0.382214 
0.979644 -0.001327 -0.194734 
1.183729 0.186758 0.000114 
1.139459 0.369786 0.000063 
1.067263 0.543684 0.000013 
0.968941 0.704261 -0.000034 
0.846824 0.847603 -0.000059 
0.703856 0.970193 -0.000120 
0.543537 1.069006 -0.000156 
0.369772 1.141595 -0.000189 
0.186779 1.186110 -0.000229 
-0.188743 1.187076 -0.000265 
-0.371954 1.143433 -0.000299 
-0.546074 1.071515 -0.000297 
-0.706646 0.973012 -0.000315 
-0.849689 0.850478 -0.000284 
-0.971744 0.707046 -0.000264 
-1.069754 0.546204 -0.000252 
-1.141301 0.371981 -0.000225 
-1.184700 0.188725 -0.000197 
-1.183756 -0.186773 -0.000111 
-1.139479 -0.369816 -0.000048 
-1.067285 -0.543692 -0.000007 
-0.968969 -0.704293 0.000036 
-0.846808 -0.847634 0.000063 
-0.703841 -0.970198 0.000128 
-0.543528 -1.068989 0.000158 
-0.369769 -1.141580 0.000197 
-0.186778 -1.186116 0.000221 
0.188745 -1.187073 0.000271 
0.371968 -1.143430 0.000298 
0.546079 -1.071517 0.000305 
0.706653 -0.973016 0.000318 
0.849700 -0.850490 0.000289 
0.971759 -0.707057 0.000268 
1.069765 -0.546218 0.000257 
1.141316 -0.371990 0.000229 
1.184706 -0.188724 0.000201 
0.000914 -1.186463 -0.187553 
0.000853 -1.142269 -0.370676 
0.000773 -1.069948 -0.544620 
0.000694 -0.971308 -0.705117 
0.000555 -0.848799 -0.848200 
0.000407 -0.705444 -0.970406 
0.000281 -0.544752 -1.068721 
0.000141 -0.370705 -1.140743 
0.000014 -0.187568 -1.184729 
-0.000318 0.188088 -1.185005 
-0.000441 0.371260 -1.141232 
-0.000564 0.545422 -1.069374 
-0.000673 0.706167 -0.971174 
-0.000758 0.849582 -0.848982 
-0.000875 0.972084 -0.705885 
-0.000904 1.070665 -0.545324 
-0.000937 1.142794 -0.371263 
-0.000958 1.186744 -0.188077 
-0.000915 1.186460 0.187546 
-0.000854 1.142275 0.370685 
-0.000770 1.070000 0.544600 
-0.000710 0.971344 0.705121 
-0.000565 0.848817 0.848213 
-0.000383 0.705447 0.970400 
-0.000284 0.544753 1.068721 
-0.000148 0.370702 1.140727 
-0.000015 0.187555 1.184704 
0.000305 -0.188040 1.184962 
0.000441 -0.371273 1.141205 
0.000575 -0.545409 1.069371 
0.000678 -0.706169 0.971173 
0.000757 -0.849590 0.848994 
0.000882 -0.972094 0.705892 
0.000911 -1.070679 0.545331 
0.000944 -1.142802 0.371264 
0.000963 -1.186746 0.188080 
-1.184136 0.000889 0.187438 
-1.140170 0.000830 0.370426 
-1.068167 0.000723 0.544293 
-0.969862 0.000638 0.704792 
-0.847700 0.000478 0.847921 
-0.704667 0.000338 0.970151 
-0.544202 0.000208 1.068550 
-0.370426 0.000055 1.140703 
-0.187455 -0.000090 1.184740 
0.187765 -0.000400 1.184893 
0.370775 -0.000549 1.140984 
0.544644 -0.000660 1.068972 
0.705102 -0.000732 0.970612 
0.848165 -0.000850 0.848351 
0.970318 -0.000935 0.705194 
1.068532 -0.000949 0.544697 
1.140458 -0.000975 0.370771 
1.184298 -0.000975 0.187768 
1.184122 -0.000888 -0.187434 
1.140153 -0.000827 -0.370416 
1.068135 -0.000721 -0.544286 
0.969841 -0.000626 -0.704783 
0.847696 -0.000479 -0.847906 
0.704679 -0.000352 -0.970152 
0.544210 -0.000197 -1.068578 
0.370402 -0.000046 -1.140727 
0.187478 0.000057 -1.184758 
-0.187763 0.000387 -1.184934 
-0.370779 0.000577 -1.141037 
-0.544657 0.000656 -1.068986 
-0.705128 0.000766 -0.970606 
-0.848164 0.000842 -0.848342 
-0.970312 0.000924 -0.705186 
-1.068523 0.000937 -0.544689 
-1.140452 0.000965 -0.370765 
-1.184301 0.000969 -0.187765 
0.818819 -0.398200 -0.414471 
0.418242 -0.795074 -0.442697 
0.394194 -0.378036 -0.837413 
0.892704 -0.299928 -0.336455 
0.297691 -0.896122 -0.334420 
0.681994 -0.336981 -0.648976 
0.558435 -0.631748 -0.539511 
0.870466 -0.482685 -0.108177 
0.181397 -0.620183 -0.763387 
0.612531 -0.172202 -0.770656 
0.873055 -0.157562 -0.460084 
0.207882 -0.853485 -0.480223 
0.953208 -0.139823 -0.265642 
0.803635 -0.294059 -0.517177 
0.684371 -0.645626 -0.343333 
0.465565 -0.864483 -0.201452 
0.630277 -0.759464 -0.174577 
0.527113 -0.478236 -0.702792 
0.796729 -0.143334 -0.585894 
0.558624 -0.755182 -0.348259 
0.985129 -0.124310 -0.113215 
0.772843 -0.619036 -0.151693 
0.154106 -0.949976 -0.277286 
0.938226 -0.308286 -0.158752 
0.736506 -0.471293 -0.486494 
0.270254 -0.952971 -0.151971 
0.549756 -0.301421 -0.778644 
0.334829 -0.706065 -0.625270 
0.834651 -0.470402 -0.289618 
0.498055 -0.181958 -0.847108 
0.148617 -0.758751 -0.635006 
0.195555 -0.481000 -0.854412 
0.177164 -0.318167 -0.930849 
0.351913 -0.557146 -0.752498 
0.638749 -0.482522 -0.600090 
0.125971 -0.985943 -0.124945 
0.448834 -0.602707 -0.660676 
0.329227 -0.216049 -0.918599 
0.204833 -0.132835 -0.969148 
0.500501 0.583086 -0.638383 
0.503098 0.784716 -0.359613 
0.806768 0.371947 -0.454823 
0.399433 0.468924 -0.786896 
0.349309 0.886679 -0.302682 
0.290216 0.313413 -0.903616 
0.169685 0.163923 -0.971326 
0.760225 0.215721 -0.610201 
0.671012 0.537411 -0.507581 
0.501322 0.847083 -0.170992 
0.600886 0.175881 -0.778184 
0.182480 0.879085 -0.442074 
0.168085 0.475607 -0.863499 
0.554665 0.683979 -0.471331 
0.150570 0.955659 -0.256809 
0.389387 0.139339 -0.909579 
0.122991 0.323320 -0.938143 
0.624391 0.702929 -0.336135 
0.114364 0.626299 -0.771840 
0.166976 0.756285 -0.633533 
0.300503 0.625465 -0.719868 
0.854827 0.485212 -0.171072 
0.607900 0.393489 -0.687652 
0.375181 0.767201 -0.519673 
0.759198 0.553463 -0.336567 
0.124284 0.986974 -0.111570 
0.287980 0.947480 -0.140471 
0.705824 0.689876 -0.148559 
0.945463 0.145857 -0.285344 
0.472416 0.305436 -0.825567 
0.853258 0.409400 -0.316326 
0.875205 0.169706 -0.449188 
0.937785 0.291635 -0.176937 
0.894347 0.282917 -0.340723 
0.981416 0.127256 -0.131606 
0.723820 0.384043 -0.570200 
0.460200 0.459288 0.758198 
0.451325 0.804840 0.382465 
0.830069 0.410790 0.371819 
0.332285 0.313404 0.888603 
0.302568 0.905704 0.295718 
0.904178 0.336636 0.255254 
0.961630 0.167238 0.210127 
0.550159 0.631857 0.543168 
0.108064 0.480852 0.869399 
0.751863 0.165504 0.636494 
0.442241 0.159488 0.881804 
0.427529 0.884484 0.182475 
0.863080 0.471666 0.167723 
0.261607 0.141120 0.954204 
0.252621 0.957224 0.141848 
0.936783 0.321020 0.123442 
0.612690 0.158731 0.773115 
0.515064 0.291036 0.804933 
0.317259 0.628730 0.708676 
0.773415 0.620085 0.113970 
0.667102 0.722869 0.169480 
0.587522 0.494014 0.638521 
0.192244 0.753523 0.628015 
0.757899 0.576950 0.297608 
0.627630 0.684520 0.366017 
0.388623 0.719417 0.573864 
0.550431 0.803103 0.221881 
0.109052 0.987210 0.123262 
0.112363 0.123142 0.985473 
0.464615 0.594352 0.654440 
0.150174 0.613060 0.774914 
0.701694 0.506033 0.497904 
0.641589 0.349369 0.680834 
0.157479 0.309245 0.937119 
0.164245 0.949638 0.268129 
0.782867 0.318863 0.531207 
0.839133 0.139427 0.523594 
0.215142 0.865180 0.452522 
0.885285 0.232263 0.398982 
0.255957 0.476609 0.840030 
0.513089 -0.790589 0.342565 
0.330106 -0.374002 0.867702 
0.328703 -0.876212 0.359973 
0.150307 -0.466690 0.872527 
0.513411 -0.159726 0.843438 
0.427993 -0.887165 0.188345 
0.607693 -0.548957 0.577316 
0.266980 -0.175628 0.947713 
0.229143 -0.959245 0.179775 
0.913186 -0.376014 0.163122 
0.769696 -0.402991 0.497822 
0.738909 -0.662235 0.141592 
0.868353 -0.190515 0.458422 
0.954615 -0.183374 0.234672 
0.507288 -0.323871 0.799723 
0.567590 -0.679009 0.470893 
0.612152 -0.777254 0.163262 
0.708834 -0.639937 0.304507 
[...]
POINT_DATA 1108
SCALARS u float 1
LOOKUP_TABLE default
0.001821
0.001793
0.002089
0.002096
0.000622
0.000599
0.001410
0.001415
0.001703
0.001727
0.000503
0.000476
0.002068
0.002275
0.002303
0.002140
0.001859
0.001681
0.001753
0.002427
0.002703
0.002738
0.002519
0.002173
0.001815
0.001662
0.002042
0.002258
0.002262
0.002108
0.001852
0.001683
0.001768
0.002443
0.002702
0.002748
0.002530
0.002176
0.001834
0.001680
0.000807
0.001083
0.001436
0.001757
0.002029
0.002178
0.002185
0.001891
0.001620
0.001308
0.001031
0.000809
0.000632
0.000557
0.000772
0.001071
0.001423
0.001735
0.002008
0.002159
0.002174
0.001883
0.001614
0.001333
0.001039
0.000822
0.000658
0.000573
0.001764
0.001668
0.001520
0.001352
0.001164
0.000929
0.000714
0.000663
0.000877
0.001106
0.001308
0.001516
0.001670
0.001762
0.001749
0.001668
0.001514
0.001350
0.001146
0.000892
0.000693
0.000663
0.000846
0.001090
0.001324
0.001538
0.001692
0.001787
0.001784
0.002085
0.002236
0.002169
0.001941
0.001618
0.001277
0.001115
0.001313
0.002130
0.002462
0.002658
0.002570
0.002287
0.001956
0.001538
0.001183
0.001150
0.001753
0.002052
0.002213
0.002129
0.001940
0.001630
0.001289
0.001115
0.001316
0.002129
0.002466
0.002663
0.002576
0.002303
0.001973
0.001555
0.001193
0.001147
0.001548
0.001323
0.001084
0.000877
0.000699
0.000590
0.000564
0.000555
0.000520
0.000533
0.000624
0.000864
0.001121
0.001376
0.001630
0.001797
0.001845
0.001830
0.001546
0.001328
0.001121
0.000909
0.000708
0.000578
0.000565
0.000573
0.000549
0.000515
0.000635
0.000861
0.001126
0.001385
0.001644
0.001813
0.001855
0.001835
0.001435
0.001432
0.001360
0.001276
0.001133
0.001009
0.000905
0.000691
0.000562
0.000522
0.000620
0.000716
0.000798
0.000941
0.001072
0.001168
0.001268
0.001347
0.001445
0.001446
0.001386
0.001290
0.001144
0.001006
0.000877
0.000685
0.000530
0.000486
0.000623
0.000705
0.000824
0.000936
0.001066
0.001165
0.001265
0.001340
0.001502
0.001867
0.000778
0.001519
0.002063
0.001152
0.001550
0.001934
0.000939
0.001039
0.001456
0.001652
0.001619
0.001343
0.001969
0.002469
0.002444
0.001078
0.001326
0.002107
0.001679
0.002171
0.002008
0.001667
0.001490
0.002375
0.000933
0.001354
0.001733
0.000893
0.001220
0.000697
0.000570
0.000992
0.001274
0.002200
0.001231
0.000675
0.000598
0.001544
0.001718
0.002016
0.001276
0.001673
0.000990
0.000759
0.001696
0.001864
0.001771
0.001340
0.001768
0.001169
0.001742
0.001892
0.000958
0.000945
0.001914
0.001433
0.001607
0.001356
0.002299
0.001587
0.001563
0.002113
0.001903
0.001713
0.002120
0.001948
0.001237
0.002168
0.001881
0.002191
0.002082
0.001988
0.001840
0.001328
0.001650
0.002072
0.000988
0.001550
0.002110
0.001965
0.001697
0.000845
0.001544
0.001031
0.001674
0.002264
0.000772
0.001633
0.002189
0.001295
0.001236
0.001228
0.002224
0.002057
0.001639
0.001183
0.002118
0.001940
0.001448
0.001843
0.001793
0.000637
0.001473
0.000996
0.001898
0.001561
0.000749
0.001598
0.001818
0.001660
0.001397
0.001870
0.000995
0.002840
0.001435
0.002752
0.001413
0.001209
0.002864
0.002262
0.000968
0.002648
0.001900
0.001975
0.002517
0.001634
0.001700
0.001526
0.002596
0.002802
0.002545
0.000744
0.001032
0.002300
0.002474
0.002617
0.002193
0.002402
0.001523
0.002596
0.001988
0.002336
0.002149
0.001807
0.002311
0.001862
0.001817
0.001363
0.001180
0.001854
0.002370
0.001554
0.001718
0.001964
0.001277
0.001676
0.001016
0.000777
0.001685
0.001855
0.001771
0.001350
0.001782
0.001171
0.001720
0.001897
0.000979
0.000944
0.001893
0.001443
0.001622
0.001375
0.002266
0.001587
0.001580
0.002119
0.001915
0.001716
0.002083
0.001918
0.001245
0.002143
0.001843
0.002153
0.002036
0.001967
0.001820
0.001316
0.001652
0.002069
0.000955
0.001529
0.002112
0.001954
0.001683
0.000822
0.001551
0.000999
0.001669
0.002222
0.000754
0.001642
0.002174
0.001302
0.001233
0.001232
0.002195
0.002018
0.001619
0.001190
0.002126
0.001929
0.001444
0.001838
0.001798
0.000610
0.001471
0.000986
0.001874
0.001554
0.000727
0.001587
0.001813
0.001666
0.001391
0.001892
0.001002
0.002817
0.001414
0.002725
0.001374
0.001199
0.002846
0.002238
0.000933
0.002632
0.001883
0.001958
0.002502
0.001622
0.001686
0.001510
0.002571
0.002789
0.002520
0.000710
0.001008
0.002273
0.002447
0.002594
0.002178
0.002372
0.001510
0.002567
0.001954
0.002315
0.002131
0.001789
0.002287
0.001844
0.001793
0.001360
0.001159
0.001837
0.002359
0.001497
0.001893
0.000791
0.001507
0.002092
0.001149
0.001560
0.001923
0.000953
0.001041
0.001437
0.001687
0.001601
0.001334
0.001962
0.002467
0.002406
0.001088
0.001316
0.002083
0.001656
0.002170
0.002003
0.001647
0.001486
0.002370
0.000939
0.001378
0.001730
0.000906
0.001239
0.000715
0.000580
0.001014
0.001278
0.002182
0.001252
0.000685
0.000607
0.002354
0.001842
0.001150
0.001347
0.002634
0.001153
0.002478
0.000831
0.001118
0.002356
0.000546
0.001170
0.001990
0.001600
0.001040
0.002114
0.000797
0.001230
0.002675
0.002034
0.001892
0.002773
0.001080
0.002206
0.001022
0.002172
0.001364
0.002647
0.001144
0.002186
0.001458
0.001508
0.001867
0.002165
0.001788
0.002618
0.001610
0.000956
0.001762
0.001121
0.001411
0.000898
0.001533
0.001279
0.002352
0.001234
0.002481
0.002356
0.002535
0.001668
0.002749
0.001952
0.002456
0.002044
0.001193
0.002288
0.001581
0.000979
0.002244
0.000704
0.000690
0.000622
0.001690
0.001262
0.000829
0.001113
0.002060
0.001212
0.001973
0.000729
0.001253
0.001921
0.000582
0.001529
0.001002
0.000863
0.001290
0.001625
0.001072
0.000812
0.002013
0.001421
0.001426
0.002156
0.001448
0.001731
0.000690
0.001481
0.001133
0.002150
0.001518
0.001701
0.001079
0.000979
0.001364
0.001534
0.001180
0.001946
0.001099
0.001264
0.001395
0.000790
0.001273
0.001051
0.001255
0.001037
0.001796
0.001128
0.001925
0.001765
0.002045
0.001216
0.002168
0.001280
0.001762
0.001661
0.001515
0.001053
0.001681
0.000974
0.001793
0.000862
0.000606
0.000702
0.001509
0.001497
0.001087
0.000865
0.001823
0.000751
0.001849
0.001029
0.000605
0.001552
0.001216
0.001956
0.000916
0.000920
0.002184
0.000744
0.001456
0.000886
0.001632
0.001235
0.000930
0.001369
0.002098
0.000698
0.000963
0.001585
0.000757
0.001524
0.001851
0.000608
0.001345
0.001178
0.001689
0.001733
0.001385
0.001893
0.001113
0.002057
0.000696
0.001029
0.001650
0.000815
0.001817
0.000970
0.002054
0.000919
0.002020
0.001336
0.001056
0.000971
0.001665
0.001770
0.001362
0.001614
0.000519
0.001176
0.001930
0.001273
0.001133
0.001160
0.001148
0.001088
0.000792
0.001349
0.001926
0.000563
0.001004
0.000533
0.001040
0.000607
0.001201
0.000805
0.001871
0.001166
0.002152
0.000554
0.001611
0.001211
0.002417
0.000853
0.000668
0.000796
0.001026
0.000516
0.001176
0.002352
0.001036
0.000673
0.001122
0.000539
0.001090
0.001670
0.001620
0.002240
0.001193
0.001753
0.001355
0.001014
0.001057
0.000545
0.000626
0.002019
0.001491
0.002088
0.000885
0.002300
0.000605
0.001457
0.000475
0.001165
0.000791
0.000998
0.000634
0.000944
0.000747
0.001058
0.001232
0.000543
0.001412
0.000776
0.002063
0.000953
0.001888
0.001852
0.001791
0.001390
0.000907
0.001964
0.001096
0.001845
0.001031
0.001839
0.001129
0.000948
0.001376
0.001157
0.000899
0.000871
0.001395
0.000697
0.000924
0.001571
0.002012
0.002152
0.001491
0.001025
0.001527
0.000799
0.001615
0.002083
0.001129
0.001212
0.001557
0.001153
0.000700
0.000596
0.001351
0.001141
0.001378
0.001559
0.001275
0.001900
0.000768
0.001140
0.001078
0.000892
0.001036
0.000710
0.001623
0.001028
0.001772
0.001024
0.001852
0.002025
0.002092
0.001300
0.001503
0.001758
0.001364
0.001599
0.001649
0.001238
0.000709
0.001821
0.000582
0.000481
0.000796
0.001340
0.001765
0.000565
0.001011
0.000533
0.001048
0.001994
0.000598
0.001208
0.001954
0.000791
0.001879
0.001145
0.000551
0.001623
0.001161
0.002440
0.000860
0.000670
0.000791
0.001034
0.000514
0.001192
0.001546
0.001030
0.000661
0.001131
0.000528
0.001095
0.001675
0.001168
0.001684
0.001334
0.000995
0.001060
0.000540
0.000627
0.002060
0.001431
0.002080
0.000875
0.002295
0.000593
0.001457
0.000474
0.001173
0.000797
0.001007
0.000630
0.000950
0.000738
0.001055
0.001232
0.000516
0.000755
0.001396
0.002144
0.000960
0.001561
0.002382
0.002265
0.002377
0.001866
0.001055
0.001363
0.002656
0.001167
0.002495
0.001124
0.002364
0.001169
0.002011
0.001047
0.001619
0.001051
0.002137
0.000811
0.001204
0.002694
0.002058
0.001908
0.002788
0.001087
0.002226
0.000749
0.002194
0.001380
0.002661
0.001146
0.002196
0.001475
0.000894
0.000593
0.001448
0.001883
0.002190
0.001790
0.002640
0.001629
0.000966
0.001780
0.001071
0.001384
0.000901
0.001551
0.001290
0.002375
0.001249
0.002506
0.002381
0.002549
0.001686
0.002768
0.001970
0.002477
0.002053
0.001195
0.001576
0.002307
0.000698
0.002262
0.000563
0.000502
0.001013
0.001678
0.001930
0.001137
0.000766
0.001212
0.000729
0.001968
0.001533
0.000572
0.001783
0.001790
0.001393
0.001632
0.001427
0.001105
0.002131
0.001573
0.000877
0.001030
0.001327
0.000800
0.001131
0.000849
0.001764
0.001333
0.001434
0.000657
0.001259
0.000652
0.001916
0.001811
0.001662
0.001504
0.001534
0.001006
0.001131
0.001795
0.001224
0.002006
0.001797
0.002026
0.001406
0.001395
0.001200
0.001157
0.000956
0.001026
0.001030
0.001148
0.000771
0.001249
0.001186
0.000547
0.001526
0.001352
0.001472
0.002115
0.001277
0.002161
0.001647
0.002018
0.000618
0.001386
0.001917
0.001147
0.001438
0.000572
0.000739
0.001961
0.000813
0.000523
0.001479
0.001932
0.001498
0.001519
0.001811
0.001892
0.001398
0.001708
0.001126
0.000961
0.002593
0.002159
0.002088
0.001927
0.001920
0.002058
0.001903
0.001970
0.001990
0.001694
0.000729
0.001085
0.001539
0.002476
0.002895
0.001713
0.002045
0.002496
0.002027
0.001916
0.001587
0.001230
0.001181
0.002317
0.001718
0.001242
0.001880
0.001902
0.000768
0.001995
0.001956
0.001442
0.001797
0.000571
0.000801
0.001435
0.001112
0.002402
0.002071
0.001803
0.002056
0.000864
0.000824
0.000643
0.001460
0.002265
0.000681
0.001048
0.001858
0.002087
0.002020
0.001878
0.000704
0.001195
0.001690
0.000915
0.000757
0.001686
0.001759
0.001047
0.001362
0.001701
0.001941
0.001798
0.002131
0.002225
0.002764
0.002399
0.002539
0.001543
0.002176
0.002653
0.001849
0.001202
0.001476
0.001016
0.000679
0.000778
0.002230
0.001083
0.001864
0.000735
