# vtk DataFile Version 2.0
Unstructured Grid Example
ASCII
DATASET UNSTRUCTURED_GRID
POINTS 1108 float
0.985348 0.006141 0.003294 
-0.985616 -0.006117 -0.003367 
0.006155 1.028460 0.015408 
-0.006351 -1.028349 -0.015264 
0.003455 0.015454 0.986203 
-0.003326 -0.015164 -0.986463 
1.186286 0.004110 0.002196 
-1.186460 -0.004051 -0.002010 
0.004109 1.226952 0.010206 
-0.004077 -1.226911 -0.010344 
0.002340 0.010154 1.186972 
-0.002391 -0.010337 -1.187200 
0.969387 0.204096 0.006271 
0.916858 0.395530 0.009072 
0.829120 0.572911 0.011318 
0.708924 0.728832 0.013117 
0.560123 0.857436 0.014904 
0.388700 0.952622 0.015531 
0.201328 1.010451 0.015760 
-0.188688 1.005521 0.014627 
-0.375303 0.943859 0.013014 
-0.546446 0.845437 0.010731 
-0.695555 0.715302 0.008269 
-0.817308 0.559257 0.005734 
-0.908247 0.382345 0.003028 
-0.965015 0.191940 -0.000236 
-0.969538 -0.203949 -0.006192 
-0.916641 -0.395367 -0.009026 
-0.828996 -0.572983 -0.011296 
-0.708900 -0.729118 -0.012950 
-0.560142 -0.857773 -0.014580 
-0.388743 -0.952996 -0.015338 
-0.201554 -1.010411 -0.015655 
0.188551 -1.005413 -0.014406 
0.375173 -0.943512 -0.012972 
0.546288 -0.845065 -0.010802 
0.695449 -0.715190 -0.008391 
0.817396 -0.559211 -0.005678 
0.908261 -0.382340 -0.003219 
0.965003 -0.191880 0.000126 
0.002311 -0.181950 0.961940 
0.000779 -0.372336 0.901782 
-0.000767 -0.549296 0.808663 
-0.002091 -0.705643 0.685886 
-0.003316 -0.836625 0.536588 
-0.004763 -0.937388 0.365710 
-0.005520 -1.002015 0.179397 
-0.006871 -1.013896 -0.210760 
-0.007127 -0.959221 -0.398391 
-0.007057 -0.865780 -0.569747 
-0.006752 -0.738088 -0.718464 
-0.006264 -0.582323 -0.838219 
-0.005466 -0.404978 -0.924080 
-0.004521 -0.213285 -0.973718 
-0.002171 0.181927 -0.962042 
-0.000845 0.371910 -0.902154 
0.000514 0.548705 -0.808550 
0.001881 0.705315 -0.685590 
0.003326 0.836301 -0.536397 
0.004603 0.937064 -0.365585 
0.005270 1.001864 -0.179247 
0.006815 1.014397 0.210955 
0.006926 0.959978 0.398623 
0.006988 0.866212 0.570090 
0.006744 0.738373 0.718564 
0.006157 0.582625 0.838381 
0.005584 0.405248 0.924119 
0.004565 0.213563 0.973698 
0.967722 0.009027 0.195980 
0.912887 0.011744 0.380969 
0.822578 0.013889 0.551463 
0.700465 0.015235 0.700956 
0.551319 0.015884 0.823071 
0.380896 0.016510 0.913405 
0.195872 0.016482 0.968755 
-0.188916 0.013911 0.965894 
-0.373694 0.011623 0.908740 
-0.543636 0.009417 0.816471 
-0.692944 0.006796 0.693342 
-0.815778 0.003542 0.543880 
-0.908061 0.000066 0.373369 
-0.965513 -0.003035 0.188720 
-0.967901 -0.008921 -0.195975 
-0.912990 -0.011544 -0.380884 
-0.822711 -0.013728 -0.551492 
-0.700544 -0.015171 -0.700915 
-0.551006 -0.016074 -0.823339 
-0.381016 -0.016623 -0.913792 
-0.195867 -0.016107 -0.968812 
0.189155 -0.013773 -0.966293 
0.373802 -0.011684 -0.908891 
0.543802 -0.009419 -0.816844 
0.693297 -0.006672 -0.693727 
0.816094 -0.003800 -0.544176 
0.908176 -0.000372 -0.373849 
0.965460 0.003085 -0.189013 
1.173862 0.192939 0.004088 
1.133900 0.377787 0.005149 
1.066524 0.554518 0.006519 
0.972261 0.718726 0.007745 
0.853027 0.866409 0.008617 
0.712009 0.992748 0.009918 
0.552197 1.095235 0.010237 
0.377534 1.169232 0.010321 
0.193188 1.213761 0.010414 
-0.184679 1.209563 0.009647 
-0.367867 1.161347 0.009089 
-0.541095 1.084271 0.008273 
-0.699317 0.980587 0.007141 
-0.840183 0.853808 0.005712 
-0.959806 0.706650 0.004261 
-1.055522 0.543689 0.002358 
-1.126395 0.368244 0.001154 
-1.170041 0.184287 -0.000618 
-1.174060 -0.193189 -0.003895 
-1.133882 -0.377793 -0.005398 
-1.066259 -0.554463 -0.006615 
-0.972262 -0.718787 -0.007693 
-0.853216 -0.866699 -0.009007 
-0.712155 -0.992970 -0.009957 
-0.552306 -1.095531 -0.010088 
-0.377716 -1.169749 -0.010321 
-0.193269 -1.213886 -0.010381 
0.184642 -1.209221 -0.009679 
0.367821 -1.161057 -0.008995 
0.540885 -1.083961 -0.008164 
0.699133 -0.980438 -0.006956 
0.840128 -0.853672 -0.005679 
0.959819 -0.706531 -0.004260 
1.055579 -0.543653 -0.002380 
1.126406 -0.368172 -0.001228 
1.169982 -0.184144 0.000583 
-0.004435 -1.216816 -0.199461 
-0.004760 -1.175364 -0.384750 
-0.004691 -1.103175 -0.560516 
-0.004512 -1.001471 -0.720917 
-0.004549 -0.875051 -0.862095 
-0.004164 -0.727704 -0.981318 
-0.003863 -0.562734 -1.074853 
-0.003439 -0.384919 -1.140568 
-0.002854 -0.199238 -1.177930 
-0.001372 0.178288 -1.167580 
-0.000929 0.361215 -1.120567 
0.000074 0.535538 -1.047293 
0.000453 0.697415 -0.950507 
0.001648 0.844207 -0.830872 
0.002101 0.971217 -0.690589 
0.002708 1.075709 -0.533091 
0.003065 1.154897 -0.361052 
0.003786 1.206294 -0.178480 
0.004437 1.217138 0.199438 
0.004560 1.175692 0.384855 
0.005137 1.103009 0.560733 
0.004586 1.001847 0.721271 
0.004530 0.875375 0.862260 
0.004434 0.727964 0.981252 
0.003796 0.562861 1.074919 
0.003469 0.384986 1.140635 
0.002897 0.199194 1.177905 
0.001420 -0.178380 1.167217 
0.000769 -0.361366 1.120342 
0.000093 -0.535493 1.047583 
-0.000410 -0.697495 0.951118 
-0.001754 -0.844440 0.831223 
-0.002079 -0.971607 0.690684 
-0.002710 -1.076052 0.533179 
-0.003093 -1.155184 0.361060 
-0.003818 -1.206423 0.178420 
-1.170524 -0.002107 0.183289 
-1.125877 -0.000671 0.364006 
-1.053485 0.001038 0.535331 
-0.956263 0.002355 0.693482 
-0.835243 0.004056 0.835433 
-0.693811 0.006226 0.956576 
-0.535517 0.007187 1.054350 
-0.363902 0.008521 1.126371 
-0.183206 0.009356 1.171327 
0.187932 0.010546 1.173337 
0.369329 0.011037 1.130859 
0.541624 0.011006 1.060049 
0.700823 0.011050 0.963176 
0.842502 0.009951 0.842355 
0.963140 0.008847 0.700601 
1.059571 0.008394 0.541617 
1.130207 0.007147 0.368998 
1.172928 0.006073 0.187917 
1.170393 0.002379 -0.183217 
1.125960 0.000778 -0.363895 
1.053735 -0.001037 -0.535503 
0.956550 -0.002430 -0.693761 
0.835607 -0.004269 -0.835787 
0.693998 -0.006600 -0.956935 
0.535676 -0.007278 -1.054642 
0.364192 -0.008459 -1.126782 
0.183096 -0.009402 -1.171559 
-0.187930 -0.010860 -1.173581 
-0.369117 -0.010871 -1.131248 
-0.541770 -0.010987 -1.060341 
-0.701074 -0.010463 -0.963082 
-0.842560 -0.010112 -0.842383 
-0.963198 -0.008980 -0.700768 
-1.059648 -0.008406 -0.541696 
-1.130300 -0.007089 -0.369011 
-1.173087 -0.006027 -0.187861 
0.804910 -0.404023 -0.412592 
0.409778 -0.818156 -0.452623 
0.385446 -0.394869 -0.835122 
0.877641 -0.302530 -0.333598 
0.289847 -0.922831 -0.347428 
0.669581 -0.347034 -0.644649 
0.548406 -0.648656 -0.543938 
0.855374 -0.484474 -0.111831 
0.174086 -0.645877 -0.771022 
0.600717 -0.182225 -0.761566 
0.858063 -0.160397 -0.453115 
0.200185 -0.883533 -0.493504 
0.937742 -0.138458 -0.260959 
0.789575 -0.300389 -0.512471 
0.672725 -0.657564 -0.348440 
0.456643 -0.883826 -0.212739 
0.619208 -0.771701 -0.183174 
0.517073 -0.493955 -0.703054 
0.782503 -0.148846 -0.577288 
0.548901 -0.772505 -0.356334 
0.970137 -0.119949 -0.110345 
0.759776 -0.625486 -0.157337 
0.146340 -0.980212 -0.292409 
0.922628 -0.307434 -0.158465 
0.724016 -0.480668 -0.486222 
0.262267 -0.977656 -0.166149 
0.539163 -0.314184 -0.773223 
0.326749 -0.730430 -0.633797 
0.820272 -0.475962 -0.290742 
0.487731 -0.194144 -0.838139 
0.141208 -0.788440 -0.646812 
0.188431 -0.503363 -0.857125 
0.170374 -0.337268 -0.927672 
0.343694 -0.577961 -0.756477 
0.627447 -0.495414 -0.599850 
0.118278 -1.013749 -0.140379 
0.439892 -0.622145 -0.665169 
0.321177 -0.231325 -0.911085 
0.198391 -0.148337 -0.959226 
0.496379 0.584441 -0.618692 
0.504561 0.798113 -0.342942 
0.797750 0.375937 -0.440114 
0.394193 0.464641 -0.765327 
0.353439 0.903818 -0.286031 
0.284843 0.304103 -0.882626 
0.165146 0.151167 -0.952981 
0.748355 0.214003 -0.595143 
0.665348 0.541965 -0.490734 
0.505982 0.868680 -0.155377 
0.590030 0.169734 -0.761104 
0.186394 0.889531 -0.423926 
0.165935 0.467505 -0.840584 
0.552957 0.691953 -0.454024 
0.156466 0.974435 -0.240296 
0.381365 0.129283 -0.891886 
0.120526 0.312206 -0.916811 
0.623980 0.715699 -0.320375 
0.114743 0.621597 -0.749015 
0.168753 0.757707 -0.612828 
0.298633 0.623728 -0.698272 
0.850540 0.498168 -0.159131 
0.599455 0.391455 -0.668980 
0.375714 0.774317 -0.500826 
0.755001 0.563183 -0.322124 
0.131371 1.011322 -0.095584 
0.294479 0.971386 -0.124372 
0.707086 0.708268 -0.134697 
0.932711 0.150337 -0.276451 
0.464097 0.299018 -0.805292 
0.845669 0.417126 -0.303563 
0.862432 0.171195 -0.437324 
0.928485 0.300730 -0.167213 
0.883798 0.288175 -0.329219 
0.968993 0.134517 -0.125007 
0.714696 0.385021 -0.553465 
0.465067 0.486084 0.765250 
0.460639 0.839357 0.397903 
0.830504 0.431917 0.378934 
0.335447 0.336325 0.889327 
0.311924 0.941193 0.312589 
0.901044 0.354089 0.261436 
0.953314 0.180506 0.213466 
0.557290 0.662128 0.555282 
0.114293 0.506800 0.875240 
0.748490 0.184162 0.635916 
0.442423 0.179571 0.877685 
0.436518 0.917160 0.198315 
0.862607 0.491081 0.176810 
0.263091 0.160564 0.947930 
0.261189 0.990037 0.158290 
0.931542 0.335756 0.130321 
0.610883 0.178365 0.770876 
0.516822 0.313714 0.806226 
0.324594 0.659847 0.720520 
0.776386 0.642629 0.125767 
0.673259 0.749905 0.182931 
0.592348 0.520752 0.647092 
0.200538 0.788056 0.642568 
0.761722 0.601667 0.308568 
0.634896 0.714285 0.379082 
0.397133 0.752885 0.588200 
0.558822 0.834147 0.236864 
0.117370 1.018921 0.139674 
0.115131 0.141322 0.977256 
0.471562 0.624390 0.665740 
0.157493 0.643008 0.785478 
0.705689 0.531743 0.506784 
0.643361 0.372559 0.685096 
0.161685 0.331348 0.936447 
0.173113 0.984769 0.285023 
0.782484 0.339820 0.535274 
0.833836 0.156496 0.523254 
0.224413 0.901525 0.469034 
0.880931 0.249702 0.401958 
0.261746 0.503301 0.846483 
0.501895 -0.792717 0.327533 
0.324490 -0.361699 0.848134 
0.319764 -0.882500 0.343483 
0.146811 -0.456339 0.850591 
0.507363 -0.144861 0.830029 
0.418100 -0.897196 0.174084 
0.595601 -0.540741 0.561454 
0.264626 -0.160652 0.931423 
0.220952 -0.975247 0.164361 
0.897483 -0.371398 0.157438 
0.756210 -0.393605 0.486048 
0.725365 -0.663642 0.131925 
0.855924 -0.178958 0.451497 
0.940435 -0.174568 0.231522 
0.499119 -0.310976 0.783244 
0.555339 -0.675524 0.454962 
0.600243 -0.782092 0.151398 
0.695195 -0.637942 0.292379 
[...]
POINT_DATA 1108
SCALARS u float 1
LOOKUP_TABLE default
0.016225
0.015989
0.032943
0.032817
0.021003
0.020597
0.014484
0.014275
0.029111
0.029118
0.016683
0.016626
0.015822
0.017224
0.020841
0.025443
0.030284
0.033219
0.034166
0.029442
0.024960
0.019837
0.016400
0.015717
0.015926
0.016084
0.015599
0.017168
0.020903
0.025601
0.030419
0.033462
0.034126
0.029272
0.024701
0.019689
0.016482
0.015606
0.015950
0.016106
0.023090
0.024413
0.023666
0.021374
0.019947
0.022209
0.026971
0.037270
0.039326
0.037788
0.033681
0.028293
0.022955
0.020036
0.023006
0.024265
0.023931
0.021673
0.020051
0.022077
0.026891
0.037788
0.040064
0.038297
0.033975
0.028594
0.023247
0.020305
0.015904
0.016177
0.016995
0.017721
0.018464
0.019634
0.020420
0.021293
0.021098
0.021356
0.020887
0.019885
0.018357
0.016824
0.015696
0.015972
0.016787
0.017652
0.018583
0.019516
0.020085
0.020856
0.020977
0.021002
0.020353
0.019511
0.018022
0.016772
0.013155
0.011372
0.012015
0.015530
0.020352
0.024972
0.028933
0.030555
0.030864
0.026355
0.022238
0.017578
0.013516
0.011408
0.011882
0.013931
0.015138
0.015581
0.013028
0.011503
0.012085
0.015557
0.020816
0.025222
0.029175
0.031068
0.030982
0.026056
0.021943
0.017307
0.013395
0.011370
0.011857
0.013882
0.015146
0.015669
0.033992
0.037139
0.037725
0.034676
0.030136
0.025051
0.019205
0.014529
0.013929
0.020057
0.022840
0.023787
0.021810
0.018252
0.014907
0.013654
0.017046
0.023315
0.034283
0.037454
0.037724
0.035177
0.030494
0.025302
0.019330
0.014597
0.013914
0.020337
0.022975
0.023539
0.021212
0.017868
0.014826
0.013747
0.017277
0.023461
0.015499
0.016845
0.018378
0.018924
0.019089
0.019355
0.018930
0.018504
0.017352
0.015894
0.015244
0.014665
0.014176
0.013170
0.012639
0.013167
0.013294
0.013717
0.015684
0.016820
0.018075
0.018539
0.018642
0.019106
0.018659
0.018037
0.017221
0.015925
0.014882
0.014437
0.013695
0.013253
0.012636
0.013100
0.013184
0.013554
0.015873
0.027540
0.019677
0.016205
0.031811
0.017447
0.021017
0.015492
0.028078
0.018971
0.017821
0.034535
0.017003
0.017031
0.018207
0.025294
0.019372
0.019383
0.018653
0.022484
0.016353
0.015869
0.035629
0.015826
0.016400
0.030716
0.018284
0.027761
0.015876
0.019185
0.033242
0.023835
0.020728
0.023276
0.017953
0.033712
0.022586
0.019369
0.019886
0.020781
0.021378
0.018891
0.023181
0.024251
0.024034
0.023081
0.020665
0.019175
0.026668
0.022348
0.021365
0.024396
0.019450
0.026026
0.022657
0.024212
0.020242
0.023009
0.020633
0.021918
0.018138
0.021708
0.020270
0.018288
0.030441
0.029620
0.022497
0.017329
0.023741
0.017543
0.018911
0.016911
0.017639
0.016620
0.020337
0.027198
0.038139
0.021097
0.022486
0.040123
0.017935
0.015701
0.032276
0.026976
0.018009
0.019785
0.036861
0.020438
0.020059
0.037724
0.016630
0.018927
0.021882
0.033433
0.024522
0.029709
0.027334
0.038089
0.026044
0.032107
0.036623
0.034549
0.037131
0.019961
0.031860
0.032227
0.026210
0.022524
0.022158
0.040166
0.020207
0.016982
0.040820
0.017352
0.027488
0.017998
0.022813
0.019511
0.023738
0.020041
0.020333
0.019942
0.021691
0.024414
0.016606
0.018830
0.015973
0.017409
0.016486
0.021310
0.018919
0.017152
0.017109
0.021922
0.023419
0.019829
0.020665
0.019053
0.016405
0.020195
0.018814
0.019322
0.021601
0.018751
0.017103
0.020559
0.020557
0.022205
0.022616
0.019602
0.021164
0.017554
0.028572
0.021135
0.021644
0.018930
0.023161
0.024498
0.024578
0.022789
0.021107
0.019455
0.026911
0.022778
0.021433
0.024330
0.019892
0.026274
0.022900
0.024334
0.020495
0.022705
0.020612
0.021891
0.018154
0.021886
0.020358
0.018479
0.030543
0.029872
0.022606
0.017510
0.023667
0.017637
0.018885
0.016663
0.017787
0.016343
0.020561
0.026889
0.038012
0.021076
0.022451
0.040359
0.017948
0.015552
0.032305
0.026476
0.017766
0.019736
0.037019
0.020428
0.019776
0.038014
0.016528
0.018654
0.021675
0.033178
0.024738
0.029649
0.027188
0.037526
0.026126
0.031916
0.036602
0.034605
0.036981
0.019674
0.031643
0.031993
0.026200
0.022498
0.021902
0.039882
0.020064
0.016680
0.040643
0.017185
0.027358
0.017965
0.022701
0.019597
0.024062
0.019972
0.020475
0.019746
0.021380
0.024508
0.016485
0.018638
0.015861
0.017275
0.016295
0.021257
0.018727
0.017127
0.016996
0.021589
0.023199
0.020002
0.020677
0.019114
0.016313
0.020116
0.018684
0.019400
0.021416
0.018526
0.017051
0.020334
0.020768
0.022759
0.022759
0.019468
0.020988
0.017428
0.028708
0.016086
0.027744
0.019858
0.016193
0.032449
0.017686
0.021221
0.015607
0.028475
0.019271
0.018152
0.034551
0.017149
0.017334
0.018364
0.025464
0.019461
0.019538
0.019023
0.022703
0.016351
0.015967
0.036032
0.016003
0.016562
0.031036
0.018459
0.028066
0.015828
0.019412
0.033718
0.024165
0.021025
0.023581
0.018103
0.034018
0.022824
0.019607
0.020193
0.015020
0.019870
0.021339
0.016116
0.013620
0.016031
0.016292
0.020789
0.015909
0.021122
0.019430
0.017684
0.017935
0.021436
0.015621
0.013816
0.017021
0.022959
0.012556
0.015422
0.013718
0.012774
0.015194
0.014315
0.022489
0.017874
0.015251
0.016418
0.014657
0.019710
0.021072
0.019665
0.020297
0.018542
0.019150
0.013195
0.017206
0.015011
0.016667
0.019230
0.022097
0.016038
0.019740
0.017534
0.014757
0.016744
0.012914
0.013268
0.011740
0.015823
0.012531
0.017746
0.015727
0.023974
0.015255
0.017009
0.018707
0.020122
0.012056
0.017733
0.022314
0.017488
0.013268
0.018874
0.023302
0.018813
0.013388
0.021091
0.014548
0.022920
0.026804
0.013016
0.020558
0.020459
0.016510
0.020689
0.013750
0.018775
0.021262
0.022609
0.012229
0.015140
0.021564
0.011914
0.016465
0.016849
0.023716
0.015284
0.024703
0.011467
0.021992
0.015338
0.021542
0.018766
0.020059
0.017681
0.015913
0.014802
0.014013
0.016049
0.019896
0.022140
0.021711
0.019343
0.020762
0.013815
0.018359
0.015305
0.016142
0.015310
0.015439
0.018851
0.012257
0.013551
0.014988
0.014270
0.026623
0.014994
0.017801
0.022941
0.019667
0.021046
0.023139
0.020083
0.018170
0.030858
0.038518
0.015388
0.011839
0.013939
0.011047
0.038071
0.013778
0.012341
0.036049
0.025283
0.031369
0.036650
0.016530
0.024263
0.030919
0.038372
0.014325
0.015563
0.013019
0.011467
0.011611
0.016577
0.039719
0.024944
0.013293
0.011498
0.011697
0.013627
0.035161
0.033934
0.030395
0.026720
0.028998
0.016646
0.020273
0.020643
0.029727
0.038273
0.031702
0.034727
0.026163
0.025491
0.019402
0.019112
0.013788
0.012937
0.012268
0.014321
0.011978
0.020915
0.023320
0.012976
0.014352
0.027559
0.023567
0.036145
0.011997
0.034045
0.038582
0.034145
0.012279
0.017130
0.027029
0.013087
0.015200
0.013730
0.015334
0.015444
0.016237
0.024147
0.011359
0.028661
0.016104
0.020206
0.011646
0.034231
0.017560
0.013882
0.012964
0.016106
0.016898
0.014542
0.014519
0.023310
0.012797
0.015523
0.016764
0.013608
0.015753
0.022244
0.033770
0.026633
0.022809
0.015447
0.013466
0.016747
0.012625
0.014010
0.026538
0.011188
0.029264
0.020555
0.030522
0.012733
0.018210
0.011077
0.014544
0.013309
0.014714
0.016945
0.013581
0.015328
0.013499
0.011921
0.015682
0.015193
0.011763
0.017909
0.029084
0.017625
0.031924
0.030663
0.027852
0.024863
0.016669
0.012229
0.037687
0.010945
0.037879
0.011602
0.034554
0.033794
0.013374
0.013609
0.027288
0.037943
0.011576
0.023288
0.012588
0.032754
0.021602
0.016054
0.031029
0.039197
0.011534
0.013064
0.026810
0.011730
0.035077
0.036851
0.012214
0.020879
0.017042
0.013966
0.018145
0.028293
0.029545
0.022066
0.036608
0.016231
0.034173
0.012102
0.014902
0.022701
0.012431
0.029771
0.013756
0.037544
0.011710
0.038735
0.027475
0.021679
0.014883
0.035358
0.032618
0.022258
0.033292
0.012775
0.017562
0.033836
0.013512
0.025634
0.013537
0.014460
0.012216
0.017034
0.027277
0.013036
0.015050
0.013630
0.015202
0.029059
0.015234
0.016204
0.030671
0.023804
0.011802
0.028319
0.019897
0.011555
0.033072
0.017325
0.013626
0.012919
0.015920
0.016531
0.014440
0.014403
0.032871
0.012801
0.015303
0.016500
0.013551
0.015703
0.021410
0.022487
0.015313
0.013457
0.016621
0.012445
0.013981
0.026170
0.011263
0.028426
0.016352
0.030013
0.012884
0.017977
0.011128
0.014442
0.013250
0.014535
0.016653
0.013501
0.015024
0.013488
0.011893
0.015779
0.015131
0.017704
0.011798
0.022923
0.017378
0.034496
0.022565
0.025800
0.015163
0.020008
0.021335
0.016266
0.013521
0.016202
0.016222
0.016063
0.021007
0.017601
0.017724
0.018905
0.021065
0.015716
0.013731
0.017224
0.022588
0.012666
0.015608
0.013758
0.012701
0.015311
0.014366
0.018445
0.018075
0.015336
0.016205
0.014793
0.019748
0.021363
0.022678
0.017804
0.019715
0.020231
0.018627
0.019330
0.013219
0.017341
0.014993
0.016595
0.019895
0.022130
0.015809
0.019623
0.017682
0.014649
0.016869
0.012900
0.013341
0.011782
0.015890
0.012495
0.017926
0.015853
0.023920
0.015452
0.018863
0.016932
0.020394
0.012133
0.020296
0.018272
0.016691
0.015593
0.015482
0.017627
0.022992
0.021441
0.022642
0.014352
0.022165
0.021804
0.014384
0.014671
0.021467
0.019155
0.021458
0.021814
0.012104
0.019067
0.020559
0.013998
0.013774
0.022508
0.025401
0.021288
0.017270
0.016051
0.016609
0.023646
0.026935
0.020563
0.014851
0.012993
0.018624
0.018278
0.013729
0.022423
0.014420
0.019787
0.020750
0.012419
0.017704
0.015515
0.020743
0.016138
0.022286
0.018891
0.022968
0.016233
0.018905
0.014552
0.023100
0.013716
0.019813
0.019650
0.026718
0.020563
0.013387
0.012705
0.015882
0.011682
0.016248
0.012687
0.022644
0.019065
0.017723
0.016731
0.018462
0.021928
0.023102
0.027924
0.011187
0.019667
0.036088
0.026713
0.016683
0.025154
0.012190
0.013767
0.017806
0.024096
0.024111
0.015239
0.029267
0.031340
0.037123
0.030136
0.017393
0.017501
0.021270
0.016868
0.018008
0.020641
0.021966
0.021661
0.023881
0.020119
0.022752
0.022304
0.020383
0.034403
0.018104
0.030005
0.019074
0.022189
0.016871
0.021665
0.039656
0.027492
0.038092
0.036565
0.022879
0.031807
0.026622
0.036069
0.026670
0.021467
0.022910
0.023870
0.022794
0.023105
0.017699
0.022136
0.017146
0.021646
0.022255
0.026205
0.019700
0.026375
0.022604
0.023536
0.035959
0.021337
0.023775
0.018674
0.023530
0.027246
0.039368
0.032188
0.027734
0.026289
0.032485
0.021988
0.022677
0.023167
0.019304
0.019333
0.020269
0.017047
0.023281
0.020848
0.029301
0.029391
0.032139
0.023653
0.016369
0.021503
0.022528
0.031815
0.027072
0.022469
0.035855
0.019040
0.012773
0.007378
