# vtk DataFile Version 2.0
Unstructured Grid Example
ASCII
DATASET UNSTRUCTURED_GRID
POINTS 1108 float
0.986174 -0.017919 0.002941 
-0.986391 0.017666 -0.002765 
-0.017845 1.018531 -0.004883 
0.017837 -1.018655 0.004931 
0.002922 -0.004754 0.994553 
-0.002984 0.004943 -0.995208 
1.187021 -0.011839 0.001951 
-1.187033 0.011960 -0.001832 
-0.011821 1.217516 -0.003046 
0.012069 -1.217677 0.003216 
0.001888 -0.003168 1.194891 
-0.001859 0.003068 -1.195235 
0.960976 0.178474 0.001816 
0.899912 0.367269 0.000880 
0.805820 0.542317 -0.000045 
0.682204 0.697232 -0.001295 
0.532773 0.827335 -0.002420 
0.362123 0.927061 -0.003355 
0.176452 0.991662 -0.004134 
-0.212659 1.005052 -0.005288 
-0.400209 0.952327 -0.005599 
-0.571539 0.861330 -0.005582 
-0.720087 0.735386 -0.005365 
-0.839793 0.581013 -0.005038 
-0.925292 0.404948 -0.004468 
-0.974558 0.214623 -0.003703 
-0.961273 -0.178621 -0.001715 
-0.900104 -0.367365 -0.000962 
-0.806317 -0.542481 0.000153 
-0.682657 -0.697185 0.001370 
-0.532895 -0.827082 0.002391 
-0.362047 -0.926718 0.003309 
-0.176292 -0.991719 0.004244 
0.212815 -1.005157 0.005417 
0.400326 -0.952218 0.005681 
0.571660 -0.861378 0.005715 
0.720352 -0.735398 0.005460 
0.839805 -0.581036 0.005094 
0.925490 -0.405150 0.004598 
0.974636 -0.214859 0.003875 
0.006480 -0.202096 0.977413 
0.009599 -0.392264 0.923328 
0.012476 -0.568322 0.833818 
0.014734 -0.722819 0.711677 
0.016492 -0.849960 0.561300 
0.017553 -0.943860 0.388821 
0.018281 -1.000425 0.200559 
0.016906 -0.996775 -0.190567 
0.015357 -0.936344 -0.378101 
0.013086 -0.839982 -0.550580 
0.010349 -0.712272 -0.701358 
0.007434 -0.557674 -0.824894 
0.003997 -0.382100 -0.917059 
0.000398 -0.192071 -0.974509 
-0.006261 0.201857 -0.977837 
-0.009486 0.392183 -0.923892 
-0.012394 0.568179 -0.833775 
-0.014569 0.722639 -0.711504 
-0.016298 0.849804 -0.561202 
-0.017392 0.943708 -0.388719 
-0.018113 1.000417 -0.200499 
-0.016792 0.996801 0.190775 
-0.015268 0.936437 0.378415 
-0.013198 0.840412 0.550583 
-0.010416 0.712478 0.701414 
-0.007680 0.557764 0.824963 
-0.004187 0.382309 0.916789 
-0.000494 0.192371 0.974161 
0.968593 -0.018364 0.196756 
0.913804 -0.018320 0.383021 
0.823498 -0.017289 0.554761 
0.701528 -0.015924 0.705529 
0.552216 -0.014005 0.829104 
0.381358 -0.011083 0.920578 
0.195819 -0.007794 0.976457 
-0.190168 -0.000972 0.974166 
-0.375089 0.002223 0.916248 
-0.546010 0.006135 0.823522 
-0.695830 0.009021 0.699353 
-0.818547 0.012000 0.548497 
-0.909823 0.014399 0.376917 
-0.966479 0.016290 0.190899 
-0.968640 0.018193 -0.196569 
-0.913741 0.018286 -0.382833 
-0.823378 0.017137 -0.554582 
-0.701397 0.015842 -0.705445 
-0.551914 0.013725 -0.829292 
-0.381455 0.010727 -0.920967 
-0.196081 0.007803 -0.977109 
0.189906 0.001387 -0.974439 
0.375367 -0.002260 -0.916542 
0.546051 -0.005989 -0.823703 
0.695615 -0.009090 -0.699302 
0.818240 -0.012055 -0.548420 
0.909736 -0.014672 -0.376800 
0.966479 -0.016639 -0.190620 
1.166463 0.175646 0.001429 
1.118594 0.357861 0.000789 
1.044836 0.530942 0.000168 
0.947265 0.691784 -0.000427 
0.827162 0.836929 -0.000736 
0.686712 0.962960 -0.001500 
0.529104 1.066683 -0.001955 
0.357678 1.145373 -0.002375 
0.175904 1.196307 -0.002865 
-0.200524 1.208410 -0.003327 
-0.385030 1.168400 -0.003750 
-0.560898 1.098124 -0.003728 
-0.721684 0.998295 -0.003953 
-0.863082 0.872965 -0.003554 
-0.982394 0.726695 -0.003304 
-1.076058 0.562530 -0.003158 
-1.141688 0.385371 -0.002816 
-1.178637 0.200303 -0.002463 
-1.166802 -0.175830 -0.001388 
-1.118845 -0.358232 -0.000601 
-1.045107 -0.531048 -0.000088 
-0.947610 -0.692192 0.000451 
-0.826970 -0.837315 0.000790 
-0.686523 -0.963016 0.001610 
-0.528990 -1.066467 0.001984 
-0.357638 -1.145186 0.002465 
-0.175895 -1.196386 0.002764 
0.200556 -1.208381 0.003391 
0.385202 -1.168370 0.003735 
0.560962 -1.098149 0.003823 
0.721768 -0.998337 0.003987 
0.863220 -0.873116 0.003624 
0.982581 -0.726839 0.003356 
1.076192 -0.562702 0.003215 
1.141872 -0.385477 0.002869 
1.178712 -0.200287 0.002520 
0.011462 -1.200736 -0.185606 
0.010689 -1.153811 -0.369007 
0.009693 -1.078491 -0.542674 
0.008693 -0.976927 -0.702518 
0.006955 -0.851927 -0.844416 
0.005101 -0.706618 -0.965627 
0.003525 -0.544329 -1.063104 
0.001772 -0.369379 -1.134694 
0.000181 -0.185801 -1.179001 
-0.003986 0.192318 -1.182459 
-0.005531 0.376327 -1.140817 
-0.007066 0.552725 -1.071285 
-0.008432 0.715679 -0.975253 
-0.009507 0.861737 -0.854221 
-0.010969 0.986659 -0.712139 
-0.011333 1.087476 -0.551503 
-0.011743 1.160399 -0.376365 
-0.012011 1.204253 -0.192176 
-0.011474 1.200693 0.185519 
-0.010709 1.153895 0.369130 
-0.009653 1.079138 0.542423 
-0.008893 0.977386 0.702565 
-0.007084 0.852145 0.844584 
-0.004795 0.706650 0.965546 
-0.003566 0.544340 1.063104 
-0.001857 0.369338 1.134490 
-0.000191 0.185638 1.178677 
0.003825 -0.191718 1.181911 
0.005524 -0.376497 1.140478 
0.007211 -0.552559 1.071256 
0.008496 -0.715710 0.975237 
0.009490 -0.861842 0.854370 
0.011056 -0.986783 0.712227 
0.011414 -1.087647 0.551587 
0.011831 -1.160494 0.376375 
0.012075 -1.204279 0.192221 
-1.171559 0.011144 0.184166 
-1.127507 0.010404 0.365882 
-1.056162 0.009056 0.538578 
-0.958804 0.007993 0.698445 
-0.838144 0.005989 0.840923 
-0.696879 0.004242 0.962434 
-0.537434 0.002601 1.060966 
-0.365872 0.000694 1.134194 
-0.184386 -0.001123 1.179131 
0.188270 -0.005020 1.181057 
0.370255 -0.006880 1.137712 
0.542978 -0.008277 1.066246 
0.702330 -0.009179 0.968211 
0.843973 -0.010648 0.846308 
0.964526 -0.011723 0.703484 
1.060734 -0.011889 0.543637 
1.131121 -0.012218 0.370195 
1.173596 -0.012221 0.188309 
1.171388 -0.011126 -0.184126 
1.127289 -0.010362 -0.365750 
1.055766 -0.009032 -0.538486 
0.958550 -0.007850 -0.698331 
0.838096 -0.006003 -0.840736 
0.697023 -0.004418 -0.962443 
0.537541 -0.002472 -1.061315 
0.365576 -0.000579 -1.134493 
0.184672 0.000711 -1.179364 
-0.188239 0.004851 -1.181570 
-0.370301 0.007229 -1.138374 
-0.543139 0.008224 -1.066426 
-0.702662 0.009606 -0.968134 
-0.843963 0.010556 -0.846194 
-0.964443 0.011581 -0.703389 
-1.060624 0.011748 -0.543544 
-1.131044 0.012100 -0.370132 
-1.173633 0.012145 -0.188267 
0.818634 -0.414964 -0.410083 
0.428967 -0.813446 -0.439337 
0.394336 -0.384642 -0.831344 
0.889376 -0.316513 -0.331904 
0.311063 -0.915487 -0.330908 
0.679999 -0.348910 -0.643487 
0.564880 -0.647955 -0.535557 
0.875034 -0.504098 -0.103894 
0.188095 -0.627074 -0.758402 
0.607151 -0.180445 -0.763815 
0.865090 -0.171286 -0.454590 
0.219699 -0.867985 -0.476573 
0.944451 -0.155660 -0.261040 
0.800132 -0.308247 -0.512032 
0.692522 -0.666487 -0.339563 
0.479719 -0.888898 -0.197648 
0.642649 -0.784454 -0.170439 
0.529113 -0.489364 -0.697614 
0.789079 -0.154995 -0.579604 
0.569473 -0.776639 -0.344750 
0.976147 -0.141036 -0.109416 
0.781225 -0.642263 -0.147517 
0.168821 -0.967467 -0.273562 
0.935974 -0.326912 -0.154547 
0.738480 -0.487802 -0.482167 
0.285664 -0.975236 -0.147804 
0.547368 -0.309869 -0.772426 
0.342800 -0.718899 -0.621294 
0.837718 -0.489683 -0.285325 
0.493531 -0.187935 -0.840041 
0.158134 -0.768209 -0.630775 
0.199171 -0.485271 -0.848641 
0.177859 -0.319871 -0.924542 
0.356204 -0.566490 -0.747469 
0.640983 -0.496339 -0.595614 
0.141817 -1.005317 -0.120756 
0.454002 -0.615181 -0.656280 
0.326728 -0.218994 -0.911844 
0.202017 -0.133164 -0.962861 
0.482997 0.581993 -0.635276 
0.483287 0.784337 -0.359469 
0.786365 0.362240 -0.449340 
0.385146 0.470041 -0.783542 
0.330923 0.892159 -0.304707 
0.279756 0.315708 -0.899643 
0.162945 0.167232 -0.966834 
0.744065 0.207047 -0.603402 
0.650842 0.531339 -0.503296 
0.480963 0.846031 -0.172304 
0.588139 0.170611 -0.771204 
0.166120 0.890788 -0.445418 
0.156479 0.482418 -0.862578 
0.534833 0.681646 -0.469135 
0.133610 0.968774 -0.260851 
0.380370 0.138114 -0.903300 
0.114209 0.329359 -0.935836 
0.602971 0.697803 -0.334554 
0.101386 0.636395 -0.773549 
0.151927 0.766839 -0.635954 
0.285779 0.630712 -0.719214 
0.831398 0.473020 -0.168725 
0.591095 0.388995 -0.681957 
0.357609 0.771231 -0.519996 
0.736872 0.544309 -0.333180 
0.107428 1.000409 -0.115727 
0.269912 0.954856 -0.143586 
0.682798 0.681664 -0.148190 
0.928259 0.132198 -0.280625 
0.459454 0.303671 -0.819885 
0.831406 0.398003 -0.312072 
0.857928 0.158131 -0.443026 
0.916904 0.277793 -0.173622 
0.874289 0.270699 -0.335719 
0.964406 0.112259 -0.128180 
0.704865 0.376573 -0.564264 
0.448752 0.451623 0.751499 
0.433382 0.801197 0.377288 
0.810867 0.397066 0.368054 
0.325859 0.306647 0.882043 
0.285483 0.908414 0.291224 
0.884743 0.322104 0.253352 
0.945578 0.151236 0.210098 
0.533330 0.623986 0.537007 
0.101193 0.479779 0.862569 
0.741139 0.151740 0.632952 
0.437219 0.149916 0.876853 
0.408654 0.883961 0.178433 
0.840923 0.457950 0.165964 
0.259119 0.134340 0.948993 
0.235345 0.963667 0.137985 
0.916463 0.306043 0.123124 
0.605002 0.146621 0.768967 
0.506338 0.281437 0.799030 
0.305118 0.625553 0.702101 
0.750451 0.608822 0.112006 
0.645250 0.714189 0.166330 
0.572639 0.484234 0.632181 
0.179855 0.754886 0.622454 
0.736867 0.565108 0.293846 
0.607709 0.675596 0.361071 
0.373546 0.715751 0.567670 
0.530253 0.797835 0.217769 
0.092770 0.999291 0.119205 
0.111940 0.118299 0.979958 
0.450507 0.587543 0.647860 
0.140567 0.612908 0.768612 
0.683957 0.494392 0.492530 
0.628896 0.337887 0.675248 
0.153158 0.305619 0.930579 
0.148225 0.957746 0.263962 
0.767400 0.305473 0.526629 
0.827575 0.124354 0.521213 
0.200276 0.868835 0.447503 
0.869797 0.217432 0.396687 
0.247517 0.472970 0.833150 
0.528540 -0.818414 0.350312 
0.336875 -0.388866 0.870394 
0.344908 -0.902431 0.367578 
0.159468 -0.479918 0.875093 
0.514440 -0.173630 0.843550 
0.444476 -0.914977 0.195118 
0.617938 -0.571993 0.584024 
0.270241 -0.186249 0.946562 
0.245826 -0.984041 0.186060 
0.915674 -0.397373 0.167358 
0.775246 -0.424546 0.502668 
0.750325 -0.688300 0.147330 
0.866380 -0.209137 0.460541 
0.950252 -0.202294 0.237408 
0.512426 -0.340449 0.802677 
0.580743 -0.704777 0.478616 
0.626648 -0.805402 0.169750 
0.720718 -0.665980 0.311029 
[...]
POINT_DATA 1108
SCALARS u float 1
LOOKUP_TABLE default
0.022823
0.022471
0.026186
0.026277
0.007798
0.007503
0.017675
0.017735
0.021350
0.021644
0.006301
0.005965
0.025919
0.028511
0.028871
0.026821
0.023295
0.021073
0.021972
0.030422
0.033878
0.034319
0.031575
0.027239
0.022752
0.020833
0.025592
0.028299
0.028355
0.026422
0.023219
0.021092
0.022157
0.030618
0.033862
0.034439
0.031712
0.027275
0.022989
0.021063
0.010121
0.013573
0.017994
0.022020
0.025430
0.027294
0.027383
0.023705
0.020303
0.016390
0.012916
0.010145
0.007927
0.006976
0.009679
0.013425
0.017830
0.021745
0.025169
0.027057
0.027253
0.023602
0.020224
0.016704
0.013029
0.010302
0.008243
0.007177
0.022105
0.020910
0.019055
0.016946
0.014594
0.011640
0.008945
0.008306
0.010994
0.013864
0.016391
0.019001
0.020933
0.022082
0.021925
0.020909
0.018977
0.016921
0.014370
0.011183
0.008682
0.008311
0.010606
0.013668
0.016601
0.019274
0.021211
0.022394
0.022358
0.026128
0.028031
0.027182
0.024323
0.020277
0.016007
0.013972
0.016451
0.026692
0.030857
0.033310
0.032211
0.028663
0.024511
0.019278
0.014826
0.014414
0.021972
0.025721
0.027743
0.026680
0.024313
0.020437
0.016157
0.013972
0.016494
0.026690
0.030909
0.033374
0.032293
0.028871
0.024732
0.019493
0.014947
0.014376
0.019401
0.016580
0.013587
0.010993
0.008765
0.007390
0.007064
0.006960
0.006517
0.006684
0.007818
0.010827
0.014056
0.017241
0.020429
0.022522
0.023123
0.022937
0.019384
0.016643
0.014049
0.011398
0.008878
0.007247
0.007083
0.007182
0.006875
0.006449
0.007961
0.010797
0.014113
0.017362
0.020602
0.022727
0.023248
0.023002
0.017989
0.017944
0.017053
0.015996
0.014197
0.012648
0.011348
0.008661
0.007038
0.006548
0.007765
0.008976
0.010007
0.011792
0.013435
0.014645
0.015894
0.016880
0.018117
0.018125
0.017377
0.016166
0.014338
0.012606
0.010997
0.008587
0.006646
0.006097
0.007803
0.008837
0.010329
0.011735
0.013364
0.014602
0.015856
0.016799
0.018832
0.023404
0.009749
0.019036
0.025857
0.014433
0.019434
0.024243
0.011765
0.013027
0.018248
0.020711
0.020292
0.016838
0.024681
0.030946
0.030634
0.013514
0.016625
0.026406
0.021040
0.027215
0.025166
0.020894
0.018670
0.029772
0.011692
0.016977
0.021724
0.011195
0.015288
0.008736
0.007140
0.012439
0.015968
0.027577
0.015431
0.008456
0.007495
0.019356
0.021534
0.025266
0.015994
0.020965
0.012413
0.009509
0.021256
0.023359
0.022200
0.016799
0.022158
0.014657
0.021831
0.023709
0.012014
0.011850
0.023996
0.017965
0.020147
0.017002
0.028815
0.019890
0.019595
0.026479
0.023855
0.021476
0.026568
0.024416
0.015499
0.027178
0.023570
0.027461
0.026095
0.024922
0.023061
0.016648
0.020677
0.025972
0.012390
0.019422
0.026452
0.024631
0.021270
0.010592
0.019347
0.012920
0.020984
0.028382
0.009678
0.020471
0.027434
0.016227
0.015488
0.015397
0.027877
0.025779
0.020542
0.014831
0.026546
0.024322
0.018155
0.023098
0.022468
0.007989
0.018464
0.012487
0.023784
0.019565
0.009386
0.020030
0.022781
0.020803
0.017507
0.023436
0.012477
0.035597
0.017988
0.034499
0.017707
0.015151
0.035894
0.028351
0.012138
0.033188
0.023817
0.024754
0.031545
0.020479
0.021308
0.019132
0.032539
0.035121
0.031905
0.009324
0.012938
0.028824
0.031003
0.032798
0.027481
0.030110
0.019095
0.032534
0.024920
0.029279
0.026941
0.022653
0.028967
0.023334
0.022776
0.017089
0.014790
0.023234
0.029711
0.019473
0.021535
0.024617
0.016004
0.021003
0.012739
0.009740
0.021116
0.023255
0.022193
0.016923
0.022334
0.014674
0.021554
0.023777
0.012265
0.011836
0.023730
0.018088
0.020330
0.017235
0.028408
0.019888
0.019801
0.026555
0.024006
0.021509
0.026106
0.024042
0.015607
0.026856
0.023100
0.026992
0.025521
0.024651
0.022817
0.016500
0.020712
0.025939
0.011967
0.019161
0.026467
0.024494
0.021097
0.010305
0.019438
0.012521
0.020918
0.027857
0.009452
0.020586
0.027247
0.016322
0.015451
0.015443
0.027506
0.025300
0.020293
0.014917
0.026642
0.024176
0.018103
0.023032
0.022535
0.007645
0.018442
0.012363
0.023483
0.019482
0.009114
0.019889
0.022720
0.020880
0.017434
0.023716
0.012556
0.035310
0.017727
0.034154
0.017227
0.015030
0.035670
0.028052
0.011699
0.032991
0.023603
0.024547
0.031365
0.020330
0.021132
0.018920
0.032229
0.034957
0.031586
0.008898
0.012628
0.028484
0.030672
0.032518
0.027302
0.029731
0.018923
0.032173
0.024488
0.029018
0.026712
0.022424
0.028661
0.023110
0.022472
0.017043
0.014532
0.023023
0.029570
0.018759
0.023722
0.009916
0.018887
0.026224
0.014401
0.019553
0.024101
0.011951
0.013052
0.018010
0.021140
0.020072
0.016724
0.024595
0.030919
0.030158
0.013636
0.016492
0.026109
0.020751
0.027204
0.025108
0.020645
0.018628
0.029710
0.011765
0.017267
0.021679
0.011352
0.015524
0.008963
0.007275
0.012709
0.016017
0.027347
0.015693
0.008587
0.007614
0.029499
0.023086
0.014415
0.016886
0.033014
0.014457
0.031062
0.010414
0.014009
0.029525
0.006846
0.014668
0.024948
0.020058
0.013035
0.026494
0.009986
0.015420
0.033523
0.025500
0.023712
0.034759
0.013538
0.027648
0.012812
0.027218
0.017091
0.033182
0.014335
0.027401
0.018272
0.018898
0.023404
0.027139
0.022408
0.032817
0.020181
0.011979
0.022088
0.014051
0.017684
0.011257
0.019214
0.016030
0.029479
0.015464
0.031094
0.029535
0.031774
0.020903
0.034460
0.024466
0.030779
0.025616
0.014957
0.028675
0.019813
0.012273
0.028125
0.008821
0.008651
0.007799
0.021177
0.015816
0.010389
0.013947
0.025821
0.015185
0.024732
0.009133
0.015711
0.024079
0.007301
0.019159
0.012558
0.010812
0.016170
0.020368
0.013432
0.010173
0.025228
0.017815
0.017877
0.027027
0.018152
0.021697
0.008648
0.018563
0.014205
0.026952
0.019021
0.021320
0.013527
0.012271
0.017097
0.019225
0.014795
0.024389
0.013775
0.015848
0.017481
0.009898
0.015954
0.013176
0.015736
0.013001
0.022505
0.014135
0.024123
0.022119
0.025630
0.015236
0.027179
0.016043
0.022080
0.020819
0.018993
0.013198
0.021064
0.012209
0.022478
0.010809
0.007590
0.008800
0.018914
0.018768
0.013619
0.010840
0.022845
0.009408
0.023177
0.012902
0.007587
0.019457
0.015245
0.024514
0.011478
0.011532
0.027375
0.009324
0.018249
0.011107
0.020450
0.015480
0.011653
0.017158
0.026294
0.008747
0.012072
0.019872
0.009484
0.019096
0.023205
0.007624
0.016858
0.014765
0.021173
0.021718
0.017363
0.023732
0.013948
0.025783
0.008725
0.012902
0.020686
0.010210
0.022776
0.012154
0.025745
0.011519
0.025317
0.016747
0.013240
0.012176
0.020871
0.022191
0.017075
0.020229
0.006505
0.014742
0.024192
0.015960
0.014207
0.014544
0.014387
0.013641
0.009933
0.016908
0.024138
0.007059
0.012582
0.006683
0.013033
0.007604
0.015051
0.010087
0.023445
0.014610
0.026969
0.006940
0.020190
0.015175
0.030293
0.010696
0.008367
0.009983
0.012863
0.006467
0.014742
0.029483
0.012990
0.008441
0.014069
0.006756
0.013666
0.020937
0.020310
0.028075
0.014954
0.021970
0.016981
0.012706
0.013242
0.006837
0.007841
0.025312
0.018683
0.026167
0.011096
0.028832
0.007586
0.018259
0.005950
0.014597
0.009919
0.012505
0.007943
0.011832
0.009360
0.013266
0.015443
0.006812
0.017696
0.009725
0.025858
0.011948
0.023661
0.023213
0.022446
0.017426
0.011364
0.024621
0.013740
0.023131
0.012917
0.023045
0.014153
0.011878
0.017249
0.014496
0.011270
0.010913
0.017481
0.008733
0.011579
0.019688
0.025224
0.026972
0.018692
0.012846
0.019143
0.010011
0.020247
0.026109
0.014146
0.015197
0.019512
0.014447
0.008776
0.007467
0.016935
0.014296
0.017278
0.019543
0.015979
0.023811
0.009629
0.014291
0.013516
0.011180
0.012989
0.008900
0.020343
0.012884
0.022216
0.012833
0.023217
0.025386
0.026226
0.016292
0.018841
0.022030
0.017103
0.020043
0.020674
0.015523
0.008887
0.022830
0.007294
0.006026
0.009980
0.016794
0.022120
0.007076
0.012668
0.006684
0.013131
0.024996
0.007490
0.015137
0.024486
0.009912
0.023553
0.014346
0.006904
0.020346
0.014555
0.030580
0.010780
0.008393
0.009919
0.012959
0.006447
0.014935
0.019384
0.012912
0.008283
0.014178
0.006622
0.013722
0.020994
0.014635
0.021114
0.016720
0.012472
0.013280
0.006769
0.007864
0.025822
0.017939
0.026071
0.010967
0.028762
0.007434
0.018265
0.005946
0.014708
0.009992
0.012626
0.007893
0.011909
0.009254
0.013227
0.015446
0.006472
0.009463
0.017501
0.026877
0.012028
0.019559
0.029859
0.028388
0.029795
0.023383
0.013217
0.017082
0.033288
0.014623
0.031270
0.014088
0.029632
0.014648
0.025203
0.013117
0.020297
0.013170
0.026785
0.010161
0.015097
0.033766
0.025791
0.023916
0.034942
0.013622
0.027904
0.009393
0.027504
0.017297
0.033352
0.014367
0.027526
0.018483
0.011204
0.007427
0.018153
0.023604
0.027452
0.022431
0.033091
0.020417
0.012114
0.022315
0.013426
0.017350
0.011296
0.019439
0.016163
0.029766
0.015653
0.031407
0.029845
0.031943
0.021133
0.034700
0.024693
0.031043
0.025727
0.014984
0.019751
0.028917
0.008744
0.028357
0.007060
0.006297
0.012691
0.021031
0.024194
0.014247
0.009595
0.015191
0.009133
0.024670
0.019217
0.007170
0.022344
0.022438
0.017456
0.020461
0.017890
0.013844
0.026706
0.019720
0.010991
0.012907
0.016628
0.010028
0.014170
0.010647
0.022115
0.016712
0.017975
0.008236
0.015782
0.008177
0.024021
0.022694
0.020829
0.018846
0.019229
0.012610
0.014171
0.022499
0.015337
0.025140
0.022529
0.025399
0.017618
0.017491
0.015040
0.014499
0.011983
0.012862
0.012905
0.014387
0.009662
0.015654
0.014860
0.006855
0.019122
0.016946
0.018454
0.026513
0.016000
0.027088
0.020644
0.025296
0.007752
0.017369
0.024028
0.014374
0.018020
0.007167
0.009261
0.024581
0.010190
0.006556
0.018538
0.024220
0.018771
0.019038
0.022702
0.023720
0.017529
0.021404
0.014116
0.012042
0.032498
0.027057
0.026168
0.024155
0.024061
0.025793
0.023855
0.024687
0.024945
0.021233
0.009141
0.013604
0.019293
0.031031
0.036289
0.021470
0.025626
0.031291
0.025404
0.024015
0.019887
0.015418
0.014808
0.029039
0.021536
0.015572
0.023564
0.023843
0.009620
0.025002
0.024514
0.018073
0.022521
0.007155
0.010044
0.017987
0.013941
0.030104
0.025956
0.022594
0.025776
0.010825
0.010331
0.008064
0.018300
0.028386
0.008532
0.013137
0.023289
0.026164
0.025315
0.023543
0.008823
0.014982
0.021179
0.011463
0.009490
0.021137
0.022047
0.013121
0.017073
0.021321
0.024334
0.022535
0.026707
0.027890
0.034647
0.030066
0.031818
0.019343
0.027277
0.033257
0.023170
0.015063
0.018497
0.012739
0.008506
0.009748
0.027954
0.013579
0.023358
0.009217
