# vtk DataFile Version 2.0
Unstructured Grid Example
ASCII
DATASET UNSTRUCTURED_GRID
POINTS 1108 float
1.002730 0.001045 -0.025768 
-1.002731 -0.001014 0.025526 
0.001338 1.014950 -0.003936 
-0.001156 -1.015288 0.004090 
-0.025358 -0.003963 0.982141 
0.025249 0.004108 -0.982285 
1.202607 0.000727 -0.017076 
-1.202565 -0.000463 0.017090 
0.000948 1.214480 -0.002670 
-0.000872 -1.214269 0.002897 
-0.016937 -0.002674 1.183192 
0.017025 0.002774 -1.183100 
0.983863 0.198171 -0.025915 
0.927527 0.388240 -0.025230 
0.835859 0.563757 -0.023383 
0.711937 0.717629 -0.021015 
0.560227 0.844215 -0.017066 
0.386410 0.938271 -0.013197 
0.197614 0.995973 -0.008816 
-0.195005 0.994599 0.000668 
-0.383975 0.936266 0.005740 
-0.557409 0.841908 0.010921 
-0.709520 0.715121 0.015427 
-0.834432 0.561183 0.018796 
-0.926254 0.385821 0.022221 
-0.983314 0.196175 0.024243 
-0.983878 -0.197962 0.025701 
-0.927192 -0.388039 0.025020 
-0.835206 -0.563463 0.023212 
-0.711322 -0.717455 0.020832 
-0.559905 -0.844226 0.017289 
-0.386254 -0.938299 0.013550 
-0.197596 -0.995878 0.008755 
0.195369 -0.995015 -0.000683 
0.384039 -0.936786 -0.005671 
0.557523 -0.842100 -0.011193 
0.709474 -0.715160 -0.015362 
0.834393 -0.561249 -0.018820 
0.926156 -0.385769 -0.022276 
0.983328 -0.196094 -0.024309 
-0.025000 -0.200024 0.965154 
-0.023881 -0.389022 0.911555 
-0.021552 -0.564122 0.823227 
-0.018653 -0.718077 0.702902 
-0.015169 -0.845132 0.554164 
-0.010573 -0.939117 0.383879 
-0.005890 -0.996791 0.197984 
0.003820 -0.993801 -0.190036 
0.008620 -0.933544 -0.375558 
0.013235 -0.837430 -0.545579 
0.017072 -0.709541 -0.694081 
0.020235 -0.555268 -0.815514 
0.022932 -0.380608 -0.905748 
0.024442 -0.191836 -0.962106 
0.024967 0.199958 -0.965211 
0.023612 0.388995 -0.912021 
0.021740 0.564180 -0.823289 
0.018764 0.718025 -0.702689 
0.015124 0.845009 -0.554028 
0.010749 0.939086 -0.383722 
0.006113 0.996771 -0.197901 
-0.003608 0.993813 0.190112 
-0.008717 0.933686 0.375217 
-0.013244 0.837357 0.545663 
-0.017211 0.709648 0.694200 
-0.020419 0.555339 0.815364 
-0.023011 0.380748 0.906038 
-0.024607 0.191982 0.962294 
0.973457 0.000250 0.167102 
0.907184 -0.000627 0.350822 
0.807270 -0.001218 0.520379 
0.679131 -0.001853 0.669508 
0.526413 -0.002796 0.794073 
0.354228 -0.003257 0.890254 
0.168434 -0.003592 0.954243 
-0.220127 -0.003949 0.973064 
-0.408549 -0.004327 0.926415 
-0.582118 -0.003784 0.842745 
-0.733944 -0.003533 0.723706 
-0.856683 -0.003313 0.576206 
-0.943755 -0.002310 0.405289 
-0.993153 -0.001729 0.219042 
-0.973423 -0.000197 -0.167300 
-0.907392 0.000610 -0.351055 
-0.807728 0.001144 -0.520484 
-0.679444 0.001843 -0.669642 
-0.526629 0.002581 -0.793682 
-0.354213 0.003183 -0.890201 
-0.168497 0.003662 -0.954274 
0.219912 0.004183 -0.973061 
0.408439 0.004324 -0.926329 
0.581849 0.003936 -0.842606 
0.733750 0.003607 -0.723725 
0.856707 0.003275 -0.576161 
0.943779 0.002487 -0.405430 
0.992908 0.001849 -0.219096 
1.188155 0.189727 -0.017133 
1.144858 0.374281 -0.017052 
1.073791 0.549792 -0.016231 
0.975788 0.712301 -0.015504 
0.853696 0.857830 -0.014145 
0.710563 0.981859 -0.011739 
0.549376 1.082093 -0.009973 
0.374346 1.155501 -0.007607 
0.189880 1.199855 -0.005583 
-0.188050 1.198927 0.000232 
-0.372555 1.153463 0.003283 
-0.547323 1.080056 0.005194 
-0.708685 0.979446 0.007394 
-0.851527 0.855504 0.009749 
-0.973471 0.710713 0.012509 
-1.072205 0.548086 0.013848 
-1.143546 0.372945 0.015141 
-1.187491 0.188553 0.016254 
-1.188052 -0.189739 0.017211 
-1.144531 -0.374154 0.017014 
-1.073270 -0.549621 0.016266 
-0.975277 -0.711985 0.015384 
-0.853676 -0.857603 0.013714 
-0.710541 -0.981643 0.011683 
-0.549238 -1.082116 0.009857 
-0.374264 -1.155427 0.007649 
-0.189862 -1.199928 0.005605 
0.188263 -1.199027 -0.000177 
0.372740 -1.153888 -0.003194 
0.547606 -1.080252 -0.005275 
0.708856 -0.979605 -0.007555 
0.851649 -0.855399 -0.009863 
0.973513 -0.710644 -0.012752 
1.072202 -0.548024 -0.013926 
1.143521 -0.372871 -0.015154 
1.187511 -0.188413 -0.016330 
0.002214 -1.197895 -0.184592 
0.004503 -1.151186 -0.367265 
0.007104 -1.075671 -0.539662 
0.008995 -0.973841 -0.697693 
0.011486 -0.848599 -0.838439 
0.013714 -0.702996 -0.957681 
0.014686 -0.541572 -1.053296 
0.015709 -0.367404 -1.123625 
0.016589 -0.184687 -1.167385 
0.016754 0.190320 -1.170062 
0.016308 0.373501 -1.129220 
0.015484 0.548842 -1.060439 
0.014282 0.711401 -0.965690 
0.012572 0.856913 -0.846041 
0.010153 0.981456 -0.705928 
0.008288 1.082432 -0.546663 
0.006427 1.156427 -0.373031 
0.003423 1.200510 -0.190463 
-0.002334 1.197673 0.184467 
-0.004464 1.151375 0.367069 
-0.006577 1.075305 0.540268 
-0.008950 0.973747 0.697691 
-0.011487 0.848705 0.838389 
-0.013959 0.703020 0.958009 
-0.014807 0.541626 1.053380 
-0.015838 0.367428 1.123855 
-0.016661 0.184602 1.167455 
-0.016927 -0.190174 1.170095 
-0.016310 -0.373642 1.128921 
-0.015466 -0.548671 1.060388 
-0.014336 -0.711292 0.965961 
-0.012496 -0.856873 0.846244 
-0.010093 -0.981539 0.706090 
-0.008252 -1.082542 0.546766 
-0.006379 -1.156456 0.373175 
-0.003353 -1.200574 0.190742 
-1.196472 -0.001115 0.204022 
-1.159417 -0.001229 0.388313 
-1.092192 -0.001872 0.563601 
-0.995409 -0.001851 0.724760 
-0.872244 -0.002631 0.865965 
-0.727883 -0.002637 0.984682 
-0.564598 -0.002688 1.078252 
-0.388264 -0.002605 1.142254 
-0.203943 -0.002781 1.177393 
0.168843 -0.002399 1.160029 
0.349087 -0.002372 1.109657 
0.519427 -0.002078 1.033381 
0.677361 -0.001665 0.934352 
0.820674 -0.001384 0.814488 
0.944518 -0.001142 0.674447 
1.046806 -0.000485 0.518038 
1.126093 -0.000020 0.348505 
1.178930 0.000309 0.169171 
1.196397 0.001200 -0.204288 
1.159561 0.001571 -0.388226 
1.092325 0.001902 -0.563604 
0.995236 0.001999 -0.724673 
0.872296 0.002565 -0.865844 
0.727933 0.002476 -0.984602 
0.564537 0.002649 -1.078107 
0.388028 0.002702 -1.142309 
0.203948 0.002713 -1.177250 
-0.168995 0.002352 -1.160185 
-0.349340 0.002319 -1.109654 
-0.519414 0.002182 -1.033154 
-0.677470 0.002069 -0.934817 
-0.820822 0.001369 -0.814685 
-0.944811 0.001087 -0.674680 
-1.047197 0.000415 -0.518261 
-1.126265 -0.000017 -0.348593 
-1.178925 -0.000269 -0.169224 
0.837600 -0.401798 -0.432774 
0.430639 -0.802834 -0.446815 
0.417216 -0.378640 -0.839820 
0.909782 -0.301582 -0.357136 
0.305626 -0.905885 -0.335952 
0.705766 -0.338993 -0.663473 
0.575967 -0.637816 -0.548139 
0.877163 -0.486367 -0.127872 
0.199677 -0.622492 -0.756378 
0.638851 -0.170961 -0.783144 
0.895522 -0.156788 -0.481256 
0.219319 -0.861139 -0.477637 
0.968992 -0.138857 -0.288734 
0.826104 -0.295965 -0.535843 
0.698101 -0.652425 -0.357011 
0.471610 -0.874428 -0.208643 
0.637543 -0.767436 -0.187187 
0.548582 -0.481484 -0.710454 
0.822589 -0.142232 -0.605043 
0.570673 -0.763327 -0.357183 
0.993932 -0.123072 -0.137429 
0.780658 -0.624912 -0.168321 
0.159421 -0.960767 -0.275166 
0.948207 -0.309635 -0.180841 
0.756333 -0.476173 -0.502026 
0.273198 -0.964174 -0.153868 
0.574443 -0.302023 -0.788199 
0.351075 -0.711191 -0.625812 
0.849131 -0.474631 -0.307738 
0.523627 -0.180478 -0.854847 
0.163624 -0.763418 -0.628789 
0.216563 -0.481498 -0.846946 
0.200170 -0.316704 -0.921887 
0.371559 -0.559963 -0.753247 
0.659977 -0.486940 -0.612050 
0.126978 -0.998174 -0.123388 
0.467432 -0.607184 -0.665574 
0.353788 -0.214238 -0.917699 
0.229475 -0.129912 -0.961960 
0.524699 0.597619 -0.652358 
0.520420 0.801666 -0.374282 
0.831054 0.383251 -0.476797 
0.424684 0.480601 -0.796031 
0.362905 0.903714 -0.313816 
0.316108 0.321481 -0.905168 
0.195187 0.169174 -0.964184 
0.787494 0.224385 -0.630599 
0.694693 0.551731 -0.526516 
0.512924 0.863017 -0.186238 
0.628778 0.183559 -0.792960 
0.197982 0.894859 -0.447158 
0.192046 0.484639 -0.861507 
0.575795 0.700659 -0.487597 
0.160967 0.971783 -0.262463 
0.416297 0.145681 -0.914304 
0.147899 0.329914 -0.930845 
0.642524 0.718665 -0.354337 
0.136234 0.636807 -0.770198 
0.186581 0.769689 -0.636321 
0.323451 0.638678 -0.726087 
0.868795 0.496164 -0.194301 
0.634938 0.405554 -0.704230 
0.394707 0.783728 -0.530655 
0.779429 0.567252 -0.357721 
0.130583 1.002233 -0.117442 
0.296792 0.963307 -0.150399 
0.718041 0.703622 -0.168873 
0.963361 0.151832 -0.309618 
0.499471 0.315077 -0.836512 
0.873315 0.420481 -0.339025 
0.899609 0.177085 -0.472139 
0.951739 0.299308 -0.201358 
0.915066 0.291827 -0.364320 
0.992501 0.132052 -0.156626 
0.749914 0.395938 -0.590220 
0.437206 0.456010 0.726234 
0.443669 0.810206 0.362594 
0.817399 0.412223 0.341903 
0.306630 0.309660 0.857585 
0.298914 0.914417 0.281663 
0.896572 0.339595 0.226566 
0.955040 0.169663 0.181201 
0.534906 0.632212 0.516261 
0.086694 0.478760 0.848453 
0.727136 0.164314 0.600151 
0.414247 0.156372 0.846825 
0.427261 0.894868 0.166826 
0.860898 0.477006 0.141504 
0.234869 0.137800 0.924511 
0.253425 0.969457 0.131031 
0.935721 0.325456 0.096456 
0.584832 0.156314 0.735261 
0.488546 0.287585 0.769535 
0.298790 0.627460 0.684160 
0.774954 0.627994 0.090640 
0.666849 0.730942 0.147637 
0.567328 0.492154 0.606977 
0.177411 0.754995 0.609931 
0.750831 0.580917 0.271476 
0.618921 0.688304 0.341487 
0.374427 0.720517 0.551056 
0.548617 0.811339 0.202623 
0.109788 0.999745 0.116781 
0.086676 0.119795 0.962264 
0.446029 0.592931 0.626355 
0.131449 0.612172 0.754857 
0.685408 0.506037 0.467828 
0.617854 0.347024 0.645761 
0.133084 0.306109 0.912331 
0.161011 0.959851 0.258302 
0.762425 0.318114 0.497744 
0.817189 0.139098 0.489053 
0.206072 0.870910 0.438120 
0.869842 0.233160 0.367107 
0.233478 0.473517 0.813722 
0.502532 -0.796128 0.327512 
0.304189 -0.375780 0.841750 
0.318321 -0.884941 0.350816 
0.126306 -0.470983 0.855521 
0.484813 -0.160527 0.808793 
0.422710 -0.895897 0.178574 
0.587175 -0.549402 0.551410 
0.239983 -0.177977 0.920189 
0.223520 -0.970985 0.176181 
0.907826 -0.376702 0.138632 
0.749762 -0.402493 0.468195 
0.734888 -0.665924 0.122808 
0.848656 -0.189741 0.426415 
0.945756 -0.182604 0.206567 
0.480405 -0.324175 0.768267 
0.552294 -0.681565 0.450706 
0.607477 -0.783085 0.147937 
0.698055 -0.642654 0.283302 
[...]
POINT_DATA 1108
SCALARS u float 1
LOOKUP_TABLE default
0.025934
0.025691
0.015517
0.015868
0.031268
0.031116
0.017289
0.017287
0.014755
0.014586
0.024011
0.024149
0.026279
0.026091
0.025160
0.023993
0.021803
0.019879
0.017741
0.013830
0.013713
0.015219
0.017551
0.019839
0.022567
0.024399
0.026045
0.025800
0.024801
0.023639
0.021919
0.020107
0.017627
0.014249
0.014163
0.015560
0.017506
0.019875
0.022603
0.024462
0.029894
0.027611
0.024608
0.022045
0.020463
0.018585
0.017298
0.014475
0.014781
0.017622
0.021611
0.025771
0.029308
0.030934
0.029826
0.027165
0.024773
0.022155
0.020357
0.018651
0.017344
0.014406
0.015096
0.017556
0.021662
0.026008
0.029181
0.030937
0.028933
0.035976
0.042726
0.046901
0.047502
0.044171
0.037788
0.026497
0.026347
0.029090
0.031753
0.032749
0.030189
0.027012
0.028750
0.035673
0.042380
0.046608
0.047667
0.044215
0.037729
0.026330
0.026231
0.028812
0.031607
0.032735
0.030325
0.026956
0.017497
0.017766
0.017592
0.017705
0.017701
0.016939
0.016927
0.016519
0.015806
0.013707
0.012748
0.012291
0.011843
0.012357
0.013869
0.014547
0.015458
0.016432
0.017557
0.017642
0.017448
0.017339
0.017232
0.016753
0.016840
0.016458
0.015879
0.013813
0.013159
0.012559
0.012108
0.012419
0.014070
0.014607
0.015458
0.016504
0.013236
0.011458
0.010887
0.012188
0.015288
0.019137
0.021890
0.023868
0.024550
0.022747
0.020452
0.018251
0.016340
0.015315
0.014715
0.015719
0.016613
0.015901
0.013075
0.011669
0.010043
0.012133
0.015323
0.019089
0.021904
0.023781
0.024558
0.022836
0.020650
0.018222
0.016265
0.015199
0.014742
0.015805
0.016641
0.015998
0.019835
0.025237
0.029760
0.031386
0.029554
0.026593
0.021942
0.017665
0.018227
0.031576
0.038434
0.043944
0.045996
0.044006
0.040591
0.034895
0.026986
0.019592
0.020018
0.025300
0.029867
0.031206
0.029518
0.026578
0.021822
0.017449
0.018283
0.031356
0.038291
0.044142
0.045578
0.043759
0.040222
0.034472
0.026817
0.019543
0.026436
0.016724
0.023141
0.026514
0.014667
0.027618
0.021255
0.021317
0.020482
0.028463
0.030045
0.015592
0.027219
0.028863
0.021465
0.015667
0.017956
0.023199
0.031321
0.018524
0.025198
0.019995
0.014172
0.024011
0.025875
0.013899
0.026121
0.018050
0.023817
0.026186
0.018003
0.022778
0.024985
0.020347
0.024986
0.014243
0.020347
0.024439
0.025757
0.030178
0.027286
0.032843
0.028168
0.024053
0.026344
0.026613
0.033528
0.031873
0.024160
0.031153
0.022563
0.024976
0.030112
0.020339
0.027186
0.026267
0.028724
0.023709
0.023430
0.026352
0.027759
0.032395
0.027020
0.030639
0.018220
0.020680
0.026187
0.029353
0.029525
0.030502
0.032678
0.027782
0.030958
0.026755
0.033238
0.040621
0.022875
0.033468
0.041274
0.017750
0.030359
0.030028
0.032132
0.030841
0.044801
0.045581
0.019144
0.027010
0.040626
0.016985
0.027341
0.047812
0.045297
0.031825
0.024505
0.023394
0.038716
0.024500
0.028067
0.027220
0.028034
0.021399
0.015219
0.035170
0.034894
0.028422
0.035377
0.043501
0.035613
0.015630
0.040306
0.041672
0.019079
0.036204
0.035696
0.018842
0.036228
0.016548
0.029152
0.044904
0.014945
0.032134
0.038567
0.014822
0.024795
0.035119
0.019468
0.037526
0.029372
0.040932
0.024582
0.017263
0.023361
0.034115
0.032675
0.020385
0.017288
0.021126
0.022134
0.027522
0.043405
0.018107
0.033633
0.029338
0.027088
0.039572
0.025126
0.024649
0.030021
0.045411
0.041832
0.030887
0.015245
0.030385
0.027466
0.032461
0.028541
0.024337
0.026309
0.026489
0.033350
0.032058
0.024419
0.031561
0.022572
0.025133
0.029651
0.020145
0.027298
0.026259
0.028701
0.023581
0.023404
0.026387
0.027233
0.032552
0.027078
0.030442
0.018211
0.020805
0.025962
0.029107
0.029520
0.030560
0.032535
0.027412
0.030746
0.026667
0.033449
0.039870
0.022619
0.032871
0.041320
0.017912
0.030136
0.029868
0.032221
0.030710
0.044757
0.045528
0.019244
0.026764
0.040467
0.016895
0.027104
0.047306
0.045198
0.031373
0.024131
0.023481
0.038543
0.023874
0.027927
0.027177
0.027925
0.021501
0.015384
0.035196
0.034127
0.028366
0.035155
0.043112
0.035728
0.015909
0.039934
0.041238
0.019198
0.036154
0.035679
0.018693
0.036143
0.016493
0.029197
0.045165
0.014760
0.032031
0.038561
0.014621
0.024754
0.034891
0.019422
0.037331
0.029193
0.040744
0.024653
0.016965
0.023219
0.033899
0.032477
0.020265
0.017329
0.021159
0.022159
0.027463
0.043272
0.018134
0.033554
0.029113
0.026755
0.039388
0.024885
0.024595
0.029841
0.045314
0.041923
0.030603
0.015051
0.026447
0.016719
0.023311
0.026634
0.014739
0.027627
0.021234
0.021355
0.020516
0.028601
0.030101
0.015109
0.027050
0.028852
0.021392
0.015440
0.017470
0.023243
0.031356
0.018394
0.025090
0.019913
0.014177
0.024060
0.025862
0.013685
0.026259
0.018288
0.023776
0.026373
0.018112
0.022909
0.025086
0.020538
0.024964
0.014067
0.020539
0.024541
0.025823
0.019229
0.029254
0.030855
0.021953
0.011375
0.021689
0.012135
0.032745
0.017449
0.013610
0.029559
0.039850
0.016127
0.021530
0.036660
0.013069
0.043614
0.020412
0.013084
0.019701
0.015111
0.010883
0.028482
0.014130
0.025729
0.024891
0.017160
0.012075
0.021453
0.014465
0.032597
0.035172
0.023725
0.023068
0.030242
0.012889
0.027134
0.042112
0.014012
0.040083
0.026135
0.044401
0.016249
0.034451
0.013276
0.028604
0.011813
0.014539
0.011231
0.019006
0.011010
0.026596
0.018432
0.014647
0.017678
0.017393
0.033680
0.037964
0.012371
0.040082
0.024617
0.035915
0.028428
0.028729
0.021119
0.021917
0.026285
0.020269
0.024297
0.018070
0.017915
0.019602
0.018075
0.031943
0.021314
0.019659
0.019256
0.031967
0.025731
0.016982
0.027334
0.025578
0.021057
0.021766
0.019157
0.027945
0.017518
0.029775
0.019896
0.021226
0.017925
0.022361
0.025529
0.024340
0.029767
0.031254
0.027783
0.030086
0.025202
0.017276
0.031452
0.020626
0.028555
0.017232
0.029877
0.023109
0.032267
0.022676
0.029797
0.024398
0.021254
0.023253
0.025607
0.027810
0.031037
0.018626
0.016105
0.025829
0.032424
0.023365
0.020524
0.020332
0.018103
0.017273
0.038645
0.024960
0.013240
0.038601
0.027353
0.035447
0.023246
0.012254
0.034519
0.022159
0.013428
0.017754
0.024306
0.017979
0.017644
0.026647
0.014574
0.013295
0.036849
0.043277
0.045428
0.038273
0.018588
0.029393
0.011880
0.032300
0.040840
0.029701
0.018587
0.029894
0.017737
0.023592
0.020940
0.026926
0.029628
0.029183
0.038482
0.016037
0.020833
0.015539
0.015777
0.016871
0.015355
0.031419
0.021703
0.034423
0.022969
0.042353
0.045344
0.042448
0.033479
0.031601
0.036565
0.018208
0.028912
0.031480
0.024945
0.013493
0.043171
0.014226
0.011143
0.014345
0.024353
0.018405
0.013816
0.016699
0.023909
0.016404
0.021436
0.017481
0.021078
0.013497
0.018138
0.013030
0.016358
0.015562
0.017298
0.010920
0.014281
0.027421
0.022109
0.023274
0.029395
0.017965
0.017434
0.013745
0.021271
0.017850
0.026035
0.019743
0.017818
0.015571
0.011886
0.013095
0.015643
0.018407
0.021345
0.018134
0.024471
0.017569
0.014445
0.014665
0.012940
0.015370
0.011970
0.014515
0.014619
0.020619
0.015304
0.021502
0.026721
0.029492
0.019658
0.026910
0.019896
0.024164
0.017774
0.020434
0.021388
0.016316
0.013098
0.027368
0.012923
0.013287
0.021931
0.034283
0.037814
0.023980
0.012198
0.023166
0.012553
0.018422
0.014473
0.021363
0.042244
0.044210
0.027275
0.014224
0.037485
0.026021
0.045308
0.016147
0.021251
0.017637
0.014462
0.011492
0.029305
0.042059
0.028885
0.018804
0.013720
0.012797
0.022061
0.037350
0.031493
0.036470
0.040369
0.029893
0.028295
0.034707
0.016413
0.029238
0.016206
0.042844
0.042305
0.032082
0.045439
0.020729
0.036438
0.017515
0.030372
0.012515
0.016076
0.015912
0.021472
0.013490
0.022975
0.029303
0.014334
0.018162
0.036520
0.022744
0.036861
0.015254
0.031931
0.028580
0.024304
0.018309
0.013732
0.016542
0.023870
0.016336
0.021446
0.013430
0.017434
0.021175
0.013571
0.013292
0.018159
0.012591
0.015565
0.017423
0.010835
0.014395
0.027410
0.021952
0.023090
0.029359
0.017934
0.017432
0.011947
0.021252
0.017691
0.026108
0.019734
0.017834
0.016070
0.015193
0.018780
0.021430
0.017902
0.024462
0.017354
0.014499
0.015010
0.012679
0.017103
0.011851
0.014751
0.014427
0.020631
0.015166
0.021579
0.026616
0.029390
0.019443
0.026879
0.019764
0.024178
0.017842
0.020425
0.016015
0.021498
0.015044
0.027263
0.011942
0.013555
0.013354
0.019191
0.029252
0.033337
0.022088
0.011441
0.021800
0.012282
0.017513
0.013810
0.040074
0.016140
0.041486
0.021480
0.036878
0.013060
0.043245
0.020387
0.013199
0.019846
0.015172
0.011017
0.028734
0.014153
0.039554
0.024859
0.017190
0.012230
0.021554
0.014592
0.032180
0.026252
0.035410
0.036340
0.023965
0.023072
0.030543
0.012855
0.027385
0.042313
0.013967
0.038448
0.026151
0.044454
0.016155
0.034689
0.013246
0.028878
0.011777
0.014691
0.011403
0.019072
0.011099
0.026790
0.018346
0.014782
0.017774
0.034143
0.017440
0.033758
0.012466
0.029336
0.027386
0.025681
0.030293
0.029104
0.021984
0.018876
0.020255
0.017645
0.025138
0.017833
0.018688
0.020704
0.025297
0.031376
0.032060
0.021397
0.026222
0.020472
0.031633
0.021756
0.023564
0.018983
0.017226
0.019904
0.019456
0.029002
0.029630
0.019241
0.017297
0.018018
0.017458
0.030555
0.029268
0.032343
0.031029
0.029034
0.024194
0.025331
0.020329
0.029408
0.025831
0.031624
0.020536
0.032033
0.025015
0.027585
0.023380
0.022097
0.020923
0.017471
0.021913
0.018679
0.027778
0.028231
0.019774
0.016183
0.029727
0.027208
0.025701
0.017184
0.020941
0.025662
0.019453
0.022632
0.023194
0.036153
0.025495
0.027840
0.031833
0.031138
0.011543
0.005992
0.023106
0.021590
0.026207
0.023222
0.038121
0.022125
0.023823
0.025596
0.038785
0.029520
0.005346
0.014949
0.018518
0.017801
0.022403
0.035975
0.030571
0.034247
0.029749
0.031844
0.025995
0.038552
0.037124
0.033503
0.031976
0.020766
0.039336
0.038598
0.014951
0.030498
0.013584
0.029543
0.044284
0.024451
0.031431
0.025796
0.042314
0.017915
0.018082
0.038219
0.019477
0.022875
0.035387
0.042632
0.029536
0.028697
0.026146
0.028363
0.020714
0.028896
0.033847
0.028913
0.029174
0.025214
0.027152
0.027906
0.029176
0.036788
0.043565
0.022476
0.030624
0.036232
0.036861
0.036932
0.041141
0.024947
0.029970
0.033920
0.040879
0.036688
0.034988
0.032180
0.037368
0.035273
0.043326
0.038667
0.031278
0.016350
0.017998
0.014195
0.023258
0.016654
0.016188
0.028188
0.031783
0.026858
0.027733
0.029649
0.030498
0.014581
0.011178
0.028927
0.008714
