# vtk DataFile Version 2.0
Unstructured Grid Example
ASCII
DATASET UNSTRUCTURED_GRID
POINTS 1108 float
1.002810 0.001076 -0.026523 
-1.002811 -0.001043 0.026273 
0.001377 1.015388 -0.004051 
-0.001190 -1.015736 0.004210 
-0.026100 -0.004079 0.981618 
0.025989 0.004229 -0.981766 
1.202683 0.000748 -0.017576 
-1.202640 -0.000476 0.017590 
0.000976 1.214904 -0.002748 
-0.000898 -1.214686 0.002981 
-0.017433 -0.002753 1.182699 
0.017524 0.002855 -1.182606 
0.983953 0.198261 -0.026674 
0.927634 0.388402 -0.025969 
0.835988 0.563996 -0.024067 
0.712078 0.717937 -0.021631 
0.560363 0.844588 -0.017566 
0.386519 0.938692 -0.013583 
0.197688 0.996417 -0.009074 
-0.195002 0.995004 0.000687 
-0.384013 0.936629 0.005908 
-0.557463 0.842214 0.011241 
-0.709591 0.715356 0.015879 
-0.834518 0.561348 0.019347 
-0.926324 0.385913 0.022872 
-0.983388 0.196207 0.024953 
-0.983968 -0.198047 0.026453 
-0.927289 -0.388196 0.025753 
-0.835315 -0.563694 0.023892 
-0.711446 -0.717758 0.021442 
-0.560032 -0.844600 0.017796 
-0.386358 -0.938721 0.013947 
-0.197670 -0.996320 0.009012 
0.195377 -0.995432 -0.000703 
0.384079 -0.937164 -0.005837 
0.557580 -0.842412 -0.011521 
0.709543 -0.715396 -0.015812 
0.834478 -0.561416 -0.019372 
0.926222 -0.385860 -0.022928 
0.983402 -0.196124 -0.025021 
-0.025732 -0.200168 0.964697 
-0.024580 -0.389208 0.911194 
-0.022183 -0.564372 0.822986 
-0.019199 -0.718398 0.702779 
-0.015613 -0.845532 0.554123 
-0.010883 -0.939563 0.383914 
-0.006062 -0.997259 0.198069 
0.003931 -0.994182 -0.189888 
0.008872 -0.933827 -0.375349 
0.013623 -0.837605 -0.545287 
0.017572 -0.709612 -0.693699 
0.020828 -0.555259 -0.815047 
0.023604 -0.380547 -0.905217 
0.025158 -0.191740 -0.961559 
0.025698 0.200100 -0.964755 
0.024303 0.389180 -0.911674 
0.022377 0.564432 -0.823049 
0.019314 0.718345 -0.702560 
0.015567 0.845405 -0.553983 
0.011064 0.939532 -0.383753 
0.006292 0.997240 -0.197983 
-0.003713 0.994195 0.189966 
-0.008973 0.933973 0.374998 
-0.013632 0.837530 0.545373 
-0.017715 0.709722 0.693822 
-0.021017 0.555332 0.814892 
-0.023685 0.380692 0.905516 
-0.025328 0.191891 0.961753 
0.973242 0.000257 0.166283 
0.906695 -0.000646 0.349889 
0.806561 -0.001254 0.519348 
0.678312 -0.001907 0.668407 
0.525559 -0.002878 0.792978 
0.353394 -0.003352 0.889269 
0.167654 -0.003697 0.953466 
-0.220860 -0.004064 0.972837 
-0.409306 -0.004454 0.926489 
-0.582896 -0.003895 0.843075 
-0.734730 -0.003636 0.724192 
-0.857421 -0.003410 0.576810 
-0.944337 -0.002378 0.405951 
-0.993515 -0.001780 0.219743 
-0.973207 -0.000203 -0.166486 
-0.906910 0.000628 -0.350128 
-0.807033 0.001177 -0.519456 
-0.678634 0.001896 -0.668544 
-0.525782 0.002657 -0.792576 
-0.353380 0.003276 -0.889215 
-0.167718 0.003769 -0.953498 
0.220639 0.004306 -0.972835 
0.409193 0.004451 -0.926401 
0.582619 0.004051 -0.842932 
0.734530 0.003713 -0.724211 
0.857446 0.003370 -0.576764 
0.944362 0.002560 -0.406096 
0.993263 0.001903 -0.219798 
1.188241 0.189786 -0.017634 
1.144963 0.374383 -0.017552 
1.073925 0.549938 -0.016706 
0.975933 0.712505 -0.015958 
0.853847 0.858103 -0.014560 
0.710715 0.982182 -0.012083 
0.549510 1.082470 -0.010265 
0.374449 1.155918 -0.007830 
0.189943 1.200284 -0.005746 
-0.188060 1.199328 0.000239 
-0.372606 1.153821 0.003379 
-0.547397 1.080373 0.005346 
-0.708783 0.979699 0.007611 
-0.851615 0.855708 0.010035 
-0.973549 0.710870 0.012875 
-1.072293 0.548183 0.014254 
-1.143613 0.373007 0.015584 
-1.187557 0.188577 0.016730 
-1.188135 -0.189798 0.017715 
-1.144626 -0.374252 0.017512 
-1.073389 -0.549763 0.016742 
-0.975408 -0.712180 0.015835 
-0.853826 -0.857868 0.014116 
-0.710693 -0.981960 0.012026 
-0.549369 -1.082494 0.010146 
-0.374365 -1.155842 0.007873 
-0.189925 -1.200358 0.005770 
0.188278 -1.199431 -0.000183 
0.372796 -1.154258 -0.003287 
0.547688 -1.080575 -0.005429 
0.708959 -0.979863 -0.007777 
0.851741 -0.855600 -0.010152 
0.973592 -0.710799 -0.013125 
1.072290 -0.548118 -0.014334 
1.143587 -0.372931 -0.015598 
1.187578 -0.188433 -0.016808 
0.002279 -1.198266 -0.184500 
0.004635 -1.151477 -0.367161 
0.007312 -1.075860 -0.539511 
0.009259 -0.973929 -0.697469 
0.011822 -0.848601 -0.838143 
0.014116 -0.702927 -0.957296 
0.015116 -0.541478 -1.052830 
0.016169 -0.367304 -1.123109 
0.017075 -0.184598 -1.166863 
0.017245 0.190396 -1.169618 
0.016785 0.373580 -1.128867 
0.015938 0.548961 -1.060182 
0.014700 0.711578 -0.965540 
0.012940 0.857158 -0.845968 
0.010450 0.981767 -0.705945 
0.008531 1.082820 -0.546717 
0.006615 1.156871 -0.373096 
0.003523 1.200957 -0.190543 
-0.002402 1.198037 0.184371 
-0.004595 1.151671 0.366959 
-0.006770 1.075483 0.540135 
-0.009212 0.973833 0.697467 
-0.011823 0.848710 0.838092 
-0.014368 0.702952 0.957634 
-0.015241 0.541534 1.052917 
-0.016302 0.367329 1.123345 
-0.017149 0.184511 1.166935 
-0.017423 -0.190246 1.169652 
-0.016788 -0.373725 1.128560 
-0.015919 -0.548785 1.060130 
-0.014756 -0.711467 0.965818 
-0.012862 -0.857117 0.846177 
-0.010389 -0.981853 0.706112 
-0.008494 -1.082932 0.546824 
-0.006566 -1.156901 0.373244 
-0.003452 -1.201023 0.190830 
-1.196802 -0.001148 0.204499 
-1.159949 -0.001265 0.388825 
-1.092865 -0.001927 0.564152 
-0.996129 -0.001905 0.725329 
-0.872939 -0.002708 0.866475 
-0.728543 -0.002714 0.985088 
-0.565178 -0.002767 1.078517 
-0.388775 -0.002681 1.142283 
-0.204418 -0.002863 1.177164 
0.168290 -0.002469 1.159291 
0.348451 -0.002442 1.108732 
0.518684 -0.002138 1.032332 
0.676542 -0.001714 0.933284 
0.819858 -0.001424 0.813491 
0.943747 -0.001176 0.673542 
1.046150 -0.000499 0.517255 
1.125649 -0.000021 0.347852 
1.178746 0.000318 0.168628 
1.196725 0.001235 -0.204773 
1.160096 0.001617 -0.388736 
1.093002 0.001958 -0.564155 
0.995951 0.002058 -0.725240 
0.872992 0.002640 -0.866351 
0.728594 0.002549 -0.985006 
0.565115 0.002727 -1.078367 
0.388532 0.002781 -1.142339 
0.204423 0.002793 -1.177017 
-0.168447 0.002421 -1.159452 
-0.348711 0.002387 -1.108728 
-0.518671 0.002246 -1.032098 
-0.676654 0.002130 -0.933763 
-0.820011 0.001409 -0.813694 
-0.944050 0.001119 -0.673782 
-1.046553 0.000427 -0.517484 
-1.125825 -0.000017 -0.347942 
-1.178741 -0.000277 -0.168683 
0.838150 -0.401946 -0.433299 
0.431029 -0.803108 -0.446927 
0.417891 -0.378675 -0.839875 
0.910273 -0.301673 -0.357730 
0.305893 -0.906220 -0.335988 
0.706457 -0.339082 -0.663883 
0.576497 -0.638035 -0.548381 
0.877371 -0.486529 -0.128438 
0.200229 -0.622577 -0.756160 
0.639608 -0.170946 -0.783493 
0.896160 -0.156801 -0.481862 
0.219684 -0.861400 -0.477552 
0.969432 -0.138869 -0.289399 
0.826753 -0.296057 -0.536376 
0.698524 -0.652677 -0.357402 
0.471823 -0.874781 -0.208844 
0.637787 -0.767733 -0.187546 
0.549216 -0.481607 -0.710666 
0.823327 -0.142229 -0.605588 
0.571053 -0.763620 -0.357435 
0.994167 -0.123078 -0.138128 
0.780908 -0.625143 -0.168797 
0.159614 -0.961127 -0.275095 
0.948493 -0.309721 -0.181478 
0.756918 -0.476358 -0.502470 
0.273324 -0.964559 -0.153913 
0.575160 -0.302062 -0.788463 
0.351571 -0.711374 -0.625818 
0.849563 -0.474804 -0.308258 
0.524364 -0.180450 -0.855056 
0.164088 -0.763579 -0.628596 
0.217187 -0.481524 -0.846713 
0.200846 -0.316666 -0.921608 
0.372145 -0.560069 -0.753256 
0.660604 -0.487104 -0.612389 
0.127048 -0.998581 -0.123332 
0.467989 -0.607346 -0.665706 
0.354501 -0.214192 -0.917656 
0.230189 -0.129827 -0.961733 
0.525363 0.598042 -0.652759 
0.520877 0.802162 -0.374711 
0.831713 0.383557 -0.477426 
0.425388 0.480946 -0.796290 
0.363256 0.904226 -0.314147 
0.316839 0.321723 -0.905204 
0.195917 0.169336 -0.963963 
0.788252 0.224616 -0.631179 
0.695336 0.552135 -0.527060 
0.513212 0.863481 -0.186688 
0.629563 0.183770 -0.793375 
0.198395 0.895350 -0.447315 
0.192718 0.484920 -0.861446 
0.576364 0.701141 -0.488068 
0.161228 0.972289 -0.262639 
0.417062 0.145864 -0.914427 
0.148606 0.330122 -0.930626 
0.643000 0.719113 -0.354866 
0.136841 0.637140 -0.770154 
0.187117 0.770109 -0.636409 
0.324085 0.639079 -0.726267 
0.869145 0.496454 -0.194975 
0.635687 0.405896 -0.704701 
0.395234 0.784222 -0.530978 
0.779965 0.567632 -0.358331 
0.130725 1.002714 -0.117624 
0.297004 0.963790 -0.150698 
0.718340 0.704004 -0.169467 
0.963841 0.151972 -0.310316 
0.500231 0.315355 -0.836819 
0.873847 0.420777 -0.339679 
0.900280 0.177272 -0.472795 
0.952095 0.299498 -0.202065 
0.915622 0.292057 -0.364998 
0.992782 0.132155 -0.157351 
0.750630 0.396268 -0.590791 
0.436504 0.455895 0.725280 
0.443399 0.810354 0.361999 
0.816979 0.412231 0.341018 
0.305862 0.309533 0.856660 
0.298763 0.914679 0.281240 
0.896300 0.339645 0.225721 
0.954806 0.169693 0.180354 
0.534416 0.632202 0.515457 
0.086050 0.478696 0.847822 
0.726384 0.164244 0.599078 
0.413415 0.156257 0.845788 
0.427205 0.895170 0.166358 
0.860778 0.477127 0.140732 
0.234079 0.137685 0.923629 
0.253405 0.969832 0.130704 
0.935638 0.325548 0.095665 
0.583997 0.156213 0.734142 
0.487747 0.287459 0.768483 
0.298218 0.627414 0.683426 
0.774941 0.628197 0.089952 
0.666786 0.731156 0.146990 
0.566699 0.492075 0.606037 
0.176945 0.755041 0.609387 
0.750570 0.581003 0.270701 
0.618615 0.688392 0.340756 
0.373973 0.720540 0.550373 
0.548512 0.811567 0.202049 
0.109768 1.000143 0.116581 
0.085923 0.119685 0.961571 
0.445449 0.592872 0.625515 
0.130876 0.612146 0.754254 
0.684886 0.506008 0.466933 
0.617126 0.346927 0.644720 
0.132358 0.306008 0.911589 
0.160876 0.960170 0.258004 
0.761787 0.318058 0.496753 
0.816517 0.139051 0.488035 
0.205768 0.871087 0.437686 
0.869351 0.233148 0.366167 
0.232798 0.473418 0.812934 
0.502262 -0.796361 0.327091 
0.303448 -0.375870 0.840996 
0.318058 -0.885263 0.350567 
0.125627 -0.471142 0.855029 
0.483978 -0.160586 0.807779 
0.422597 -0.896223 0.178305 
0.586601 -0.549473 0.550668 
0.239201 -0.178072 0.919380 
0.223397 -0.971392 0.176092 
0.907675 -0.376777 0.137926 
0.749193 -0.402533 0.467340 
0.734799 -0.666099 0.122272 
0.848074 -0.189766 0.425483 
0.945486 -0.182629 0.205751 
0.479630 -0.324226 0.767353 
0.551879 -0.681705 0.450135 
0.607377 -0.783327 0.147505 
0.697769 -0.642799 0.282698 
[...]
POINT_DATA 1108
SCALARS u float 1
LOOKUP_TABLE default
0.026693
0.026444
0.015972
0.016332
0.032183
0.032028
0.017795
0.017793
0.015187
0.015013
0.024714
0.024856
0.027048
0.026855
0.025897
0.024696
0.022442
0.020461
0.018260
0.014235
0.014114
0.015665
0.018065
0.020420
0.023228
0.025113
0.026808
0.026556
0.025527
0.024332
0.022561
0.020696
0.018144
0.014666
0.014577
0.016016
0.018018
0.020457
0.023265
0.025179
0.030770
0.028419
0.025329
0.022690
0.021063
0.019129
0.017805
0.014899
0.015214
0.018138
0.022244
0.026526
0.030166
0.031840
0.030699
0.027961
0.025498
0.022803
0.020954
0.019197
0.017852
0.014828
0.015539
0.018070
0.022297
0.026769
0.030036
0.031843
0.029780
0.037030
0.043978
0.048275
0.048893
0.045464
0.038894
0.027272
0.027118
0.029942
0.032683
0.033708
0.031073
0.027803
0.029592
0.036718
0.043621
0.047972
0.049063
0.045509
0.038834
0.027101
0.026999
0.029655
0.032533
0.033694
0.031213
0.027745
0.018009
0.018287
0.018107
0.018223
0.018220
0.017435
0.017423
0.017003
0.016269
0.014108
0.013122
0.012651
0.012190
0.012719
0.014275
0.014973
0.015910
0.016913
0.018072
0.018158
0.017959
0.017847
0.017736
0.017244
0.017333
0.016940
0.016344
0.014217
0.013544
0.012927
0.012463
0.012783
0.014482
0.015035
0.015910
0.016987
0.013624
0.011794
0.011206
0.012545
0.015736
0.019697
0.022531
0.024567
0.025269
0.023413
0.021051
0.018785
0.016819
0.015763
0.015146
0.016179
0.017100
0.016366
0.013458
0.012011
0.010338
0.012489
0.015771
0.019648
0.022545
0.024478
0.025278
0.023505
0.021255
0.018756
0.016742
0.015644
0.015174
0.016268
0.017128
0.016466
0.020416
0.025976
0.030632
0.032305
0.030419
0.027372
0.022584
0.018182
0.018761
0.032501
0.039559
0.045231
0.047343
0.045295
0.041780
0.035917
0.027776
0.020166
0.020604
0.026040
0.030742
0.032120
0.030383
0.027357
0.022461
0.017960
0.018819
0.032275
0.039413
0.045435
0.046913
0.045040
0.041400
0.035482
0.027603
0.020115
0.027211
0.017214
0.023819
0.027290
0.015097
0.028427
0.021878
0.021941
0.021082
0.029296
0.030925
0.016049
0.028016
0.029708
0.022094
0.016126
0.018482
0.023879
0.032239
0.019066
0.025936
0.020581
0.014587
0.024714
0.026632
0.014306
0.026886
0.018579
0.024515
0.026953
0.018531
0.023445
0.025716
0.020942
0.025718
0.014660
0.020943
0.025155
0.026512
0.031061
0.028085
0.033805
0.028993
0.024757
0.027116
0.027393
0.034510
0.032806
0.024868
0.032066
0.023223
0.025708
0.030994
0.020934
0.027982
0.027036
0.029565
0.024404
0.024116
0.027124
0.028572
0.033343
0.027811
0.031536
0.018754
0.021286
0.026954
0.030212
0.030390
0.031396
0.033635
0.028595
0.031865
0.027539
0.034212
0.041810
0.023545
0.034448
0.042483
0.018270
0.031248
0.030907
0.033073
0.031744
0.046113
0.046915
0.019705
0.027801
0.041816
0.017482
0.028142
0.049212
0.046624
0.032757
0.025223
0.024079
0.039850
0.025218
0.028889
0.028018
0.028855
0.022026
0.015665
0.036200
0.035916
0.029254
0.036413
0.044774
0.036656
0.016088
0.041486
0.042893
0.019637
0.037264
0.036741
0.019394
0.037289
0.017033
0.030006
0.046219
0.015382
0.033075
0.039697
0.015256
0.025521
0.036147
0.020038
0.038625
0.030232
0.042131
0.025301
0.017769
0.024046
0.035114
0.033631
0.020982
0.017794
0.021745
0.022782
0.028328
0.044676
0.018637
0.034618
0.030198
0.027882
0.040731
0.025862
0.025371
0.030900
0.046741
0.043057
0.031791
0.015691
0.031275
0.028270
0.033412
0.029377
0.025049
0.027080
0.027265
0.034327
0.032997
0.025134
0.032485
0.023233
0.025869
0.030520
0.020735
0.028098
0.027028
0.029541
0.024271
0.024089
0.027160
0.028030
0.033505
0.027870
0.031334
0.018744
0.021414
0.026723
0.029959
0.030384
0.031455
0.033488
0.028215
0.031647
0.027448
0.034429
0.041038
0.023281
0.033833
0.042530
0.018436
0.031018
0.030742
0.033164
0.031610
0.046068
0.046861
0.019808
0.027547
0.041652
0.017390
0.027898
0.048692
0.046521
0.032291
0.024837
0.024168
0.039671
0.024574
0.028745
0.027973
0.028743
0.022130
0.015834
0.036226
0.035126
0.029197
0.036185
0.044375
0.036774
0.016374
0.041103
0.042446
0.019761
0.037213
0.036724
0.019240
0.037201
0.016976
0.030052
0.046488
0.015193
0.032969
0.039690
0.015050
0.025479
0.035913
0.019991
0.038424
0.030048
0.041938
0.025375
0.017462
0.023899
0.034891
0.033428
0.020859
0.017836
0.021779
0.022808
0.028267
0.044539
0.018665
0.034537
0.029966
0.027538
0.040542
0.025614
0.025316
0.030715
0.046641
0.043151
0.031499
0.015492
0.027221
0.017209
0.023994
0.027414
0.015171
0.028436
0.021856
0.021981
0.021116
0.029438
0.030982
0.015552
0.027843
0.029697
0.022019
0.015892
0.017982
0.023924
0.032275
0.018933
0.025825
0.020496
0.014592
0.024764
0.026619
0.014086
0.027028
0.018824
0.024472
0.027145
0.018642
0.023580
0.025820
0.021140
0.025695
0.014479
0.021141
0.025259
0.026579
0.019792
0.030111
0.031759
0.022596
0.011708
0.022324
0.012490
0.033704
0.017960
0.014008
0.030425
0.041017
0.016600
0.022161
0.037734
0.013451
0.044891
0.021010
0.013468
0.020278
0.015553
0.011202
0.029316
0.014544
0.026482
0.025620
0.017662
0.012429
0.022082
0.014888
0.033551
0.036202
0.024420
0.023744
0.031128
0.013266
0.027928
0.043345
0.014422
0.041257
0.026900
0.045701
0.016725
0.035460
0.013664
0.029442
0.012159
0.014965
0.011560
0.019562
0.011333
0.027375
0.018971
0.015076
0.018195
0.017903
0.034666
0.039076
0.012733
0.041256
0.025338
0.036967
0.029261
0.029571
0.021738
0.022559
0.027054
0.020863
0.025009
0.018599
0.018440
0.020176
0.018604
0.032878
0.021939
0.020235
0.019820
0.032904
0.026485
0.017479
0.028134
0.026327
0.021674
0.022403
0.019718
0.028763
0.018031
0.030647
0.020478
0.021848
0.018450
0.023016
0.026277
0.025053
0.030639
0.032169
0.028597
0.030967
0.025941
0.017782
0.032373
0.021230
0.029392
0.017737
0.030752
0.023786
0.033211
0.023340
0.030670
0.025112
0.021877
0.023934
0.026357
0.028624
0.031946
0.019171
0.016576
0.026586
0.033374
0.024049
0.021125
0.020927
0.018633
0.017778
0.039776
0.025691
0.013628
0.039731
0.028154
0.036485
0.023927
0.012613
0.035530
0.022808
0.013821
0.018274
0.025018
0.018505
0.018161
0.027427
0.015001
0.013684
0.037928
0.044544
0.046758
0.039394
0.019133
0.030254
0.012228
0.033246
0.042036
0.030571
0.019131
0.030769
0.018256
0.024283
0.021553
0.027714
0.030495
0.030037
0.039609
0.016506
0.021443
0.015994
0.016239
0.017365
0.015805
0.032339
0.022339
0.035431
0.023642
0.043594
0.046672
0.043691
0.034459
0.032526
0.037636
0.018741
0.029759
0.032402
0.025675
0.013889
0.044436
0.014643
0.011470
0.014765
0.025067
0.018944
0.014221
0.017188
0.024609
0.016884
0.022064
0.017992
0.021695
0.013892
0.018669
0.013412
0.016837
0.016018
0.017804
0.011240
0.014699
0.028224
0.022757
0.023956
0.030256
0.018491
0.017945
0.014147
0.021894
0.018372
0.026797
0.020321
0.018340
0.016027
0.012235
0.013478
0.016101
0.018946
0.021970
0.018665
0.025187
0.018083
0.014868
0.015094
0.013318
0.015820
0.012321
0.014940
0.015048
0.021223
0.015752
0.022131
0.027504
0.030356
0.020234
0.027698
0.020479
0.024872
0.018294
0.021032
0.022014
0.016794
0.013481
0.028170
0.013302
0.013676
0.022573
0.035286
0.038921
0.024682
0.012555
0.023845
0.012920
0.018962
0.014897
0.021988
0.043481
0.045505
0.028074
0.014641
0.038583
0.026783
0.046635
0.016620
0.021873
0.018154
0.014885
0.011829
0.030164
0.043291
0.029731
0.019355
0.014122
0.013172
0.022707
0.038444
0.032415
0.037538
0.041551
0.030769
0.029124
0.035723
0.016893
0.030094
0.016681
0.044099
0.043544
0.033022
0.046770
0.021336
0.037505
0.018028
0.031261
0.012882
0.016547
0.016378
0.022101
0.013885
0.023648
0.030161
0.014754
0.018694
0.037590
0.023410
0.037941
0.015700
0.032866
0.029417
0.025016
0.018845
0.014134
0.017027
0.024569
0.016815
0.022074
0.013824
0.017944
0.021796
0.013969
0.013681
0.018691
0.012960
0.016021
0.017933
0.011153
0.014816
0.028213
0.022595
0.023766
0.030219
0.018460
0.017943
0.012297
0.021875
0.018209
0.026873
0.020312
0.018356
0.016540
0.015638
0.019330
0.022057
0.018426
0.025179
0.017862
0.014924
0.015449
0.013050
0.017604
0.012198
0.015183
0.014850
0.021236
0.015610
0.022211
0.027396
0.030250
0.020012
0.027666
0.020343
0.024886
0.018365
0.021023
0.016484
0.022127
0.015485
0.028061
0.012292
0.013952
0.013745
0.019753
0.030109
0.034314
0.022735
0.011776
0.022439
0.012642
0.018026
0.014214
0.041248
0.016613
0.042701
0.022109
0.037957
0.013443
0.044512
0.020984
0.013586
0.020427
0.015617
0.011340
0.029576
0.014567
0.040712
0.025587
0.017693
0.012589
0.022185
0.015019
0.033123
0.027021
0.036447
0.037404
0.024667
0.023748
0.031437
0.013231
0.028187
0.043552
0.014376
0.039574
0.026917
0.045756
0.016628
0.035705
0.013634
0.029724
0.012122
0.015121
0.011737
0.019631
0.011424
0.027574
0.018883
0.015215
0.018294
0.035143
0.017950
0.034747
0.012831
0.030195
0.028188
0.026433
0.031180
0.029957
0.022627
0.019429
0.020848
0.018162
0.025874
0.018355
0.019235
0.021311
0.026038
0.032294
0.032999
0.022024
0.026990
0.021071
0.032559
0.022393
0.024254
0.019539
0.017731
0.020487
0.020026
0.029851
0.030498
0.019805
0.017804
0.018545
0.017969
0.031450
0.030125
0.033291
0.031937
0.029884
0.024903
0.026073
0.020925
0.030269
0.026587
0.032550
0.021137
0.032971
0.025748
0.028393
0.024064
0.022744
0.021536
0.017983
0.022555
0.019226
0.028591
0.029058
0.020353
0.016657
0.030597
0.028004
0.026454
0.017687
0.021554
0.026414
0.020023
0.023295
0.023874
0.037212
0.026242
0.028655
0.032765
0.032050
0.011882
0.006167
0.023783
0.022223
0.026975
0.023902
0.039238
0.022773
0.024521
0.026346
0.039920
0.030385
0.005503
0.015387
0.019060
0.018322
0.023059
0.037028
0.031466
0.035250
0.030620
0.032777
0.026756
0.039681
0.038211
0.034484
0.032912
0.021374
0.040488
0.039728
0.015389
0.031391
0.013982
0.030408
0.045581
0.025167
0.032352
0.026552
0.043553
0.018440
0.018611
0.039338
0.020048
0.023545
0.036424
0.043880
0.030401
0.029537
0.026912
0.029194
0.021320
0.029742
0.034838
0.029760
0.030028
0.025952
0.027947
0.028723
0.030031
0.037865
0.044841
0.023134
0.031521
0.037293
0.037941
0.038014
0.042346
0.025677
0.030847
0.034914
0.042076
0.037762
0.036013
0.033123
0.038462
0.036306
0.044595
0.039799
0.032194
0.016829
0.018525
0.014611
0.023939
0.017142
0.016662
0.029014
0.032713
0.027644
0.028545
0.030517
0.031391
0.015008
0.011505
0.029774
0.008969
