# vtk DataFile Version 2.0
Unstructured Grid Example
ASCII
DATASET UNSTRUCTURED_GRID
POINTS 1108 float
1.018079 0.023432 -0.003845 
-1.017796 -0.023101 0.003616 
0.023335 0.975768 0.006385 
-0.023324 -0.975606 -0.006448 
-0.003821 0.006216 1.007123 
0.003902 -0.006463 -1.006266 
1.216972 0.015481 -0.002551 
-1.216956 -0.015639 0.002395 
0.015457 1.177096 0.003984 
-0.015782 -1.176885 -0.004205 
-0.002469 0.004142 1.206681 
0.002432 -0.004012 -1.206231 
1.006688 0.216818 -0.002374 
0.955221 0.402840 -0.001151 
0.865010 0.572900 0.000059 
0.739671 0.720020 0.001693 
0.585380 0.836877 0.003165 
0.409568 0.919720 0.004388 
0.219462 0.966562 0.005406 
-0.172117 0.949053 0.006915 
-0.359766 0.886681 0.007321 
-0.534689 0.792422 0.007299 
-0.690134 0.670128 0.007015 
-0.820586 0.522301 0.006587 
-0.922032 0.353569 0.005843 
-0.988928 0.169548 0.004843 
-1.006301 -0.216626 0.002243 
-0.954969 -0.402714 0.001257 
-0.864360 -0.572686 -0.000200 
-0.739078 -0.720081 -0.001791 
-0.585221 -0.837207 -0.003127 
-0.409669 -0.920167 -0.004327 
-0.219672 -0.966488 -0.005550 
0.171913 -0.948916 -0.007083 
0.359613 -0.886823 -0.007429 
0.534530 -0.792361 -0.007473 
0.689787 -0.670112 -0.007140 
0.820570 -0.522270 -0.006661 
0.921773 -0.353305 -0.006012 
0.988827 -0.169240 -0.005067 
-0.008473 -0.185930 0.985195 
-0.012552 -0.370156 0.924601 
-0.016314 -0.538895 0.828399 
-0.019267 -0.686561 0.701130 
-0.021565 -0.807291 0.548078 
-0.022953 -0.897752 0.374658 
-0.023905 -0.955103 0.187939 
-0.022107 -0.959877 -0.201005 
-0.020082 -0.907580 -0.388675 
-0.017112 -0.820338 -0.562096 
-0.013532 -0.700352 -0.714625 
-0.009721 -0.552820 -0.840068 
-0.005227 -0.383446 -0.932798 
-0.000520 -0.199039 -0.988992 
0.008187 0.186242 -0.984640 
0.012405 0.370261 -0.923864 
0.016207 0.539082 -0.828456 
0.019051 0.686796 -0.701356 
0.021312 0.807494 -0.548206 
0.022742 0.897951 -0.374791 
0.023685 0.955114 -0.188018 
0.021958 0.959843 0.200733 
0.019965 0.907459 0.388264 
0.017258 0.819776 0.562092 
0.013621 0.700083 0.714550 
0.010042 0.552702 0.839978 
0.005475 0.383173 0.933152 
0.000646 0.198646 0.989447 
0.996728 0.024013 0.192913 
0.937055 0.023956 0.382243 
0.841894 0.022608 0.556628 
0.714402 0.020822 0.709170 
0.559957 0.018313 0.834563 
0.384416 0.014492 0.928197 
0.194137 0.010192 0.986445 
-0.201527 0.001271 0.989442 
-0.392615 -0.002907 0.933859 
-0.568072 -0.008023 0.841862 
-0.721852 -0.011797 0.717246 
-0.848367 -0.015692 0.564820 
-0.942260 -0.018829 0.390224 
-0.999492 -0.021302 0.200570 
-0.996668 -0.023790 -0.193156 
-0.937138 -0.023911 -0.382487 
-0.842051 -0.022409 -0.556862 
-0.714573 -0.020715 -0.709280 
-0.560351 -0.017948 -0.834317 
-0.384290 -0.014027 -0.927688 
-0.193794 -0.010204 -0.985592 
0.201869 -0.001813 -0.989084 
0.392251 0.002956 -0.933475 
0.568019 0.007831 -0.841626 
0.722134 0.011887 -0.717312 
0.848769 0.015764 -0.564921 
0.942374 0.019186 -0.390376 
0.999492 0.021758 -0.200937 
1.209761 0.203511 -0.001869 
1.170917 0.387766 -0.001032 
1.101078 0.562895 -0.000220 
1.001623 0.723072 0.000558 
0.876467 0.863696 0.000963 
0.729704 0.981099 0.001961 
0.565299 1.072509 0.002556 
0.388005 1.135900 0.003105 
0.203175 1.170737 0.003746 
-0.170980 1.154910 0.004351 
-0.352240 1.105788 0.004903 
-0.523723 1.031396 0.004875 
-0.683973 0.934893 0.005169 
-0.829498 0.816574 0.004647 
-0.955687 0.677421 0.004320 
-1.060251 0.521589 0.004129 
-1.140718 0.351794 0.003683 
-1.193842 0.171270 0.003221 
-1.209318 -0.203270 0.001814 
-1.170588 -0.387281 0.000786 
-1.100723 -0.562757 0.000115 
-1.001171 -0.722538 -0.000590 
-0.876719 -0.863191 -0.001033 
-0.729951 -0.981026 -0.002105 
-0.565447 -1.072792 -0.002595 
-0.388059 -1.136144 -0.003223 
-0.203186 -1.170633 -0.003614 
0.170939 -1.154948 -0.004434 
0.352014 -1.105828 -0.004885 
0.523640 -1.031363 -0.004999 
0.683864 -0.934839 -0.005213 
0.829317 -0.816376 -0.004740 
0.955442 -0.677233 -0.004389 
1.060075 -0.521365 -0.004204 
1.140478 -0.351655 -0.003751 
1.193744 -0.171290 -0.003296 
-0.014988 -1.164945 -0.190488 
-0.013978 -1.124866 -0.373192 
-0.012675 -1.057069 -0.547554 
-0.011368 -0.962835 -0.709035 
-0.009095 -0.844083 -0.853905 
-0.006670 -0.703674 -0.977612 
-0.004610 -0.545389 -1.077189 
-0.002318 -0.372705 -1.149864 
-0.000236 -0.190232 -1.193367 
0.005212 0.181711 -1.188845 
0.007233 0.363620 -1.141858 
0.009239 0.534410 -1.066492 
0.011026 0.691826 -0.965024 
0.012431 0.831256 -0.841084 
0.014343 0.950109 -0.696455 
0.014819 1.045320 -0.536009 
0.015356 1.116251 -0.363570 
0.015707 1.160346 -0.181897 
0.015004 1.165001 0.190601 
0.014004 1.124756 0.373031 
0.012622 1.056222 0.547882 
0.011629 0.962234 0.708974 
0.009263 0.843799 0.853685 
0.006270 0.703632 0.977718 
0.004663 0.545375 1.077190 
0.002428 0.372758 1.150131 
0.000250 0.190445 1.193790 
-0.005002 -0.182495 1.189561 
-0.007224 -0.363397 1.142300 
-0.009430 -0.534628 1.066530 
-0.011110 -0.691785 0.965045 
-0.012409 -0.831118 0.840889 
-0.014458 -0.949947 0.696340 
-0.014926 -1.045096 0.535899 
-0.015471 -1.116127 0.363557 
-0.015790 -1.160311 0.181837 
-1.203097 -0.014572 0.192370 
-1.159263 -0.013604 0.377279 
-1.086267 -0.011842 0.552910 
-0.986534 -0.010452 0.714362 
-0.862107 -0.007831 0.858473 
-0.716409 -0.005547 0.981787 
-0.554405 -0.003402 1.079985 
-0.377292 -0.000908 1.150518 
-0.192082 0.001469 1.193196 
0.187004 0.006564 1.190677 
0.371559 0.008997 1.145918 
0.547156 0.010824 1.073081 
0.709281 0.012003 0.974233 
0.854484 0.013923 0.851431 
0.979051 0.015329 0.707773 
1.080288 0.015546 0.546294 
1.154536 0.015977 0.371638 
1.200434 0.015980 0.186953 
1.203321 0.014549 -0.192423 
1.159547 0.013550 -0.377451 
1.086784 0.011810 -0.553030 
0.986866 0.010265 -0.714510 
0.862170 0.007850 -0.858718 
0.716222 0.005777 -0.981775 
0.554266 0.003232 -1.079529 
0.377678 0.000757 -1.150127 
0.191709 -0.000930 -1.192892 
-0.187044 -0.006343 -1.190007 
-0.371499 -0.009452 -1.145052 
-0.546945 -0.010754 -1.072846 
-0.708848 -0.012561 -0.974334 
-0.854498 -0.013803 -0.851581 
-0.979160 -0.015144 -0.707897 
-1.080432 -0.015362 -0.546416 
-1.154636 -0.015823 -0.371721 
-1.200386 -0.015882 -0.187009 
0.819096 -0.372925 -0.421088 
0.402072 -0.767375 -0.447762 
0.393979 -0.368076 -0.846563 
0.897723 -0.274922 -0.343316 
0.277530 -0.866925 -0.339715 
0.685001 -0.318996 -0.657253 
0.548717 -0.607314 -0.545472 
0.863578 -0.450401 -0.114633 
0.171298 -0.609793 -0.770902 
0.620643 -0.159774 -0.780971 
0.885064 -0.136871 -0.468369 
0.190066 -0.831623 -0.485726 
0.966411 -0.115945 -0.272581 
0.808918 -0.272666 -0.524933 
0.672082 -0.614174 -0.349016 
0.444224 -0.827671 -0.207187 
0.611623 -0.721787 -0.180815 
0.524097 -0.461458 -0.710599 
0.808261 -0.125753 -0.595377 
0.542266 -0.722830 -0.353550 
0.998671 -0.099091 -0.118942 
0.760205 -0.584016 -0.157988 
0.131921 -0.923605 -0.282900 
0.941622 -0.280204 -0.165091 
0.733529 -0.446402 -0.493018 
0.247020 -0.919402 -0.158255 
0.553357 -0.288683 -0.788020 
0.322812 -0.686715 -0.631266 
0.830026 -0.441330 -0.296090 
0.504875 -0.172945 -0.857763 
0.134268 -0.744491 -0.641384 
0.190104 -0.474560 -0.863114 
0.176116 -0.315598 -0.940358 
0.345443 -0.543057 -0.760081 
0.635380 -0.461691 -0.606840 
0.102081 -0.956732 -0.131261 
0.441043 -0.583899 -0.667305 
0.332995 -0.211608 -0.928783 
0.209080 -0.132340 -0.978628 
0.526892 0.584734 -0.643068 
0.532969 0.785286 -0.359830 
0.837530 0.386581 -0.463091 
0.420974 0.467239 -0.791954 
0.377031 0.878416 -0.299628 
0.305987 0.309953 -0.909606 
0.179849 0.158935 -0.978100 
0.784589 0.228799 -0.620452 
0.701422 0.546567 -0.514043 
0.532019 0.848668 -0.169014 
0.620104 0.183828 -0.788707 
0.207146 0.861441 -0.437033 
0.185582 0.465338 -0.864886 
0.584566 0.687497 -0.474641 
0.176142 0.935885 -0.250715 
0.402981 0.141185 -0.919045 
0.136231 0.314214 -0.941621 
0.656686 0.710659 -0.338518 
0.133933 0.611077 -0.769262 
0.189664 0.740372 -0.629883 
0.322703 0.617552 -0.720855 
0.890152 0.503595 -0.174611 
0.633236 0.400264 -0.696238 
0.401676 0.761126 -0.519187 
0.792858 0.567266 -0.341673 
0.149697 0.966719 -0.105303 
0.315221 0.936359 -0.135773 
0.740539 0.702258 -0.149115 
0.971402 0.166451 -0.292461 
0.491959 0.308099 -0.834135 
0.886205 0.426583 -0.322740 
0.901254 0.187158 -0.458479 
0.969267 0.312504 -0.181934 
0.924588 0.301337 -0.348267 
1.007063 0.149866 -0.136770 
0.752399 0.395306 -0.579151 
0.477459 0.470845 0.768298 
0.478377 0.810333 0.390272 
0.859019 0.431482 0.377496 
0.341974 0.323592 0.898494 
0.328327 0.901619 0.302493 
0.933480 0.358546 0.258122 
0.985832 0.191364 0.210172 
0.575531 0.643723 0.552458 
0.118423 0.482471 0.879697 
0.768031 0.186255 0.641833 
0.449813 0.173919 0.889268 
0.455986 0.885272 0.188571 
0.896485 0.492345 0.170376 
0.265359 0.151343 0.962061 
0.278668 0.947509 0.147672 
0.967420 0.343601 0.123920 
0.624282 0.176989 0.779370 
0.528221 0.305508 0.813834 
0.335565 0.633519 0.718590 
0.808039 0.637066 0.116932 
0.700047 0.735956 0.174229 
0.609961 0.508759 0.648081 
0.210923 0.751470 0.636400 
0.789609 0.594806 0.303279 
0.657665 0.697974 0.373475 
0.411355 0.724945 0.583202 
0.580852 0.811045 0.228081 
0.133600 0.968997 0.129379 
0.113000 0.130445 0.993787 
0.485885 0.604619 0.664360 
0.164658 0.613289 0.784415 
0.728437 0.523584 0.506008 
0.660725 0.366682 0.689257 
0.163993 0.314712 0.946980 
0.188398 0.937415 0.274411 
0.806187 0.339052 0.538108 
0.856560 0.162154 0.527183 
0.237555 0.859668 0.460089 
0.908637 0.254624 0.402442 
0.268682 0.482096 0.850404 
0.489793 -0.748636 0.330886 
0.319901 -0.351592 0.863643 
0.304271 -0.836682 0.348508 
0.136494 -0.446744 0.868660 
0.511860 -0.138764 0.843270 
0.403142 -0.845234 0.178134 
0.592246 -0.514225 0.567202 
0.262063 -0.159615 0.949450 
0.203989 -0.921859 0.170299 
0.909434 -0.343810 0.156734 
0.761328 -0.370494 0.490517 
0.721698 -0.622936 0.132941 
0.871327 -0.162440 0.455228 
0.961194 -0.154849 0.230548 
0.499542 -0.298876 0.795269 
0.547759 -0.640159 0.459250 
0.590297 -0.734815 0.153478 
0.690916 -0.600672 0.294673 
[...]
POINT_DATA 1108
SCALARS u float 1
LOOKUP_TABLE default
0.029845
0.029384
0.034242
0.034361
0.010197
0.009811
0.023113
0.023191
0.027918
0.028303
0.008239
0.007800
0.033892
0.037282
0.037753
0.035072
0.030462
0.027556
0.028732
0.039781
0.044301
0.044877
0.041289
0.035619
0.029752
0.027242
0.033465
0.037005
0.037078
0.034550
0.030362
0.027581
0.028974
0.040038
0.044279
0.045034
0.041468
0.035666
0.030061
0.027542
0.013234
0.017749
0.023529
0.028794
0.033253
0.035691
0.035808
0.030998
0.026549
0.021432
0.016890
0.013266
0.010366
0.009122
0.012656
0.017555
0.023315
0.028435
0.032912
0.035381
0.035637
0.030864
0.026446
0.021843
0.017037
0.013471
0.010779
0.009385
0.028906
0.027343
0.024918
0.022159
0.019083
0.015221
0.011697
0.010862
0.014376
0.018129
0.021434
0.024846
0.027373
0.028875
0.028670
0.027341
0.024815
0.022127
0.018791
0.014623
0.011353
0.010868
0.013869
0.017873
0.021708
0.025203
0.027737
0.029284
0.029236
0.034166
0.036655
0.035545
0.031805
0.026514
0.020931
0.018270
0.021512
0.034904
0.040349
0.043558
0.042120
0.037481
0.032051
0.025209
0.019387
0.018848
0.028731
0.033634
0.036278
0.034888
0.031793
0.026724
0.021127
0.018270
0.021568
0.034901
0.040417
0.043641
0.042227
0.037753
0.032341
0.025490
0.019545
0.018799
0.025370
0.021680
0.017767
0.014374
0.011462
0.009664
0.009237
0.009101
0.008522
0.008740
0.010223
0.014158
0.018380
0.022545
0.026714
0.029450
0.030236
0.029994
0.025347
0.021763
0.018372
0.014904
0.011609
0.009477
0.009263
0.009392
0.008990
0.008433
0.010410
0.014118
0.018455
0.022704
0.026940
0.029718
0.030400
0.030078
0.023523
0.023465
0.022299
0.020917
0.018564
0.016538
0.014839
0.011325
0.009203
0.008562
0.010154
0.011737
0.013086
0.015420
0.017568
0.019150
0.020784
0.022073
0.023690
0.023700
0.022723
0.021140
0.018749
0.016485
0.014381
0.011228
0.008691
0.007972
0.010204
0.011556
0.013506
0.015345
0.017476
0.019095
0.020734
0.021967
0.024626
0.030604
0.012749
0.024892
0.033811
0.018874
0.025413
0.031702
0.015384
0.017034
0.023862
0.027082
0.026535
0.022018
0.032274
0.040467
0.040058
0.017671
0.021739
0.034529
0.027513
0.035587
0.032908
0.027322
0.024414
0.038931
0.015288
0.022199
0.028407
0.014640
0.019992
0.011424
0.009336
0.016266
0.020881
0.036061
0.020178
0.011058
0.009801
0.025310
0.028159
0.033039
0.020915
0.027415
0.016231
0.012434
0.027795
0.030546
0.029030
0.021967
0.028975
0.019166
0.028547
0.031003
0.015709
0.015496
0.031378
0.023492
0.026345
0.022232
0.037680
0.026010
0.025623
0.034625
0.031193
0.028083
0.034742
0.031928
0.020267
0.035539
0.030822
0.035909
0.034123
0.032590
0.030156
0.021769
0.027038
0.033963
0.016201
0.025397
0.034590
0.032208
0.027813
0.013851
0.025299
0.016894
0.027439
0.037114
0.012656
0.026769
0.035874
0.021219
0.020253
0.020133
0.036453
0.033710
0.026862
0.019394
0.034713
0.031805
0.023741
0.030204
0.029380
0.010447
0.024144
0.016328
0.031100
0.025584
0.012273
0.026192
0.029790
0.027203
0.022893
0.030646
0.016315
0.046548
0.023522
0.045112
0.023155
0.019811
0.046937
0.037073
0.015872
0.043398
0.031145
0.032369
0.041249
0.026779
0.027863
0.025017
0.042550
0.045926
0.041721
0.012192
0.016919
0.037691
0.040541
0.042889
0.035936
0.039373
0.024969
0.042543
0.032587
0.038286
0.035229
0.029622
0.037879
0.030512
0.029783
0.022347
0.019340
0.030381
0.038851
0.025463
0.028160
0.032190
0.020928
0.027464
0.016659
0.012737
0.027612
0.030409
0.029021
0.022129
0.029204
0.019188
0.028185
0.031092
0.016038
0.015477
0.031030
0.023653
0.026584
0.022537
0.037147
0.026006
0.025892
0.034724
0.031391
0.028126
0.034137
0.031438
0.020408
0.035119
0.030206
0.035296
0.033373
0.032234
0.029836
0.021576
0.027084
0.033918
0.015648
0.025056
0.034610
0.032030
0.027588
0.013476
0.025418
0.016373
0.027353
0.036427
0.012360
0.026919
0.035630
0.021343
0.020205
0.020194
0.035968
0.033083
0.026536
0.019506
0.034838
0.031613
0.023672
0.030118
0.029468
0.009998
0.024115
0.016166
0.030707
0.025476
0.011918
0.026008
0.029709
0.027303
0.022797
0.031012
0.016419
0.046173
0.023180
0.044661
0.022527
0.019654
0.046644
0.036682
0.015299
0.043140
0.030864
0.032098
0.041014
0.026584
0.027633
0.024741
0.042144
0.045712
0.041303
0.011635
0.016513
0.037247
0.040108
0.042522
0.035701
0.038878
0.024745
0.042071
0.032021
0.037946
0.034929
0.029323
0.037478
0.030219
0.029385
0.022286
0.019002
0.030106
0.038666
0.024529
0.031020
0.012966
0.024697
0.034291
0.018832
0.025569
0.031516
0.015628
0.017067
0.023551
0.027644
0.026247
0.021869
0.032161
0.040431
0.039435
0.017831
0.021566
0.034141
0.027135
0.035573
0.032833
0.026996
0.024358
0.038850
0.015385
0.022579
0.028348
0.014845
0.020300
0.011720
0.009513
0.016619
0.020944
0.035760
0.020521
0.011229
0.009957
0.038574
0.030188
0.018849
0.022081
0.043170
0.018905
0.040618
0.013618
0.018318
0.038608
0.008952
0.019180
0.032623
0.026229
0.017045
0.034645
0.013059
0.020164
0.043836
0.033345
0.031006
0.045453
0.017703
0.036154
0.016754
0.035592
0.022349
0.043390
0.018746
0.035830
0.023893
0.024712
0.030604
0.035488
0.029302
0.042912
0.026389
0.015664
0.028883
0.018373
0.023124
0.014721
0.025125
0.020962
0.038547
0.020221
0.040660
0.038621
0.041549
0.027334
0.045061
0.031993
0.040247
0.033497
0.019559
0.037496
0.025909
0.016049
0.036777
0.011535
0.011312
0.010198
0.027692
0.020681
0.013585
0.018238
0.033764
0.019857
0.032340
0.011943
0.020544
0.031487
0.009547
0.025053
0.016421
0.014139
0.021144
0.026634
0.017564
0.013303
0.032989
0.023296
0.023377
0.035341
0.023737
0.028372
0.011308
0.024274
0.018575
0.035243
0.024873
0.027879
0.017688
0.016047
0.022356
0.025139
0.019347
0.031892
0.018013
0.020724
0.022859
0.012944
0.020862
0.017229
0.020577
0.017001
0.029429
0.018484
0.031544
0.028924
0.033515
0.019923
0.035541
0.020978
0.028873
0.027224
0.024836
0.017259
0.027544
0.015965
0.029393
0.014135
0.009925
0.011508
0.024732
0.024542
0.017808
0.014174
0.029873
0.012302
0.030307
0.016871
0.009922
0.025443
0.019934
0.032055
0.015009
0.015079
0.035796
0.012192
0.023864
0.014524
0.026741
0.020243
0.015237
0.022437
0.034383
0.011438
0.015786
0.025985
0.012402
0.024971
0.030344
0.009970
0.022045
0.019308
0.027687
0.028399
0.022705
0.031034
0.018240
0.033715
0.011409
0.016872
0.027050
0.013351
0.029783
0.015893
0.033665
0.015062
0.033106
0.021899
0.017313
0.015921
0.027292
0.029018
0.022328
0.026452
0.008506
0.019277
0.031635
0.020869
0.018577
0.019018
0.018814
0.017837
0.012988
0.022110
0.031564
0.009230
0.016453
0.008738
0.017043
0.009944
0.019682
0.013191
0.030658
0.019104
0.035266
0.009075
0.026401
0.019844
0.039612
0.013987
0.010940
0.013054
0.016820
0.008456
0.019277
0.038553
0.016987
0.011038
0.018397
0.008835
0.017870
0.027378
0.026558
0.036712
0.019555
0.028728
0.022206
0.016615
0.017316
0.008940
0.010253
0.033099
0.024431
0.034217
0.014510
0.037701
0.009920
0.023876
0.007781
0.019088
0.012971
0.016353
0.010387
0.015473
0.012240
0.017347
0.020194
0.008907
0.023140
0.012717
0.033812
0.015624
0.030940
0.030354
0.029351
0.022787
0.014860
0.032196
0.017967
0.030247
0.016891
0.030135
0.018508
0.015532
0.022555
0.018956
0.014737
0.014271
0.022859
0.011420
0.015141
0.025745
0.032984
0.035270
0.024442
0.016799
0.025032
0.013091
0.026476
0.034142
0.018498
0.019873
0.025514
0.018891
0.011476
0.009764
0.022145
0.018694
0.022593
0.025556
0.020895
0.031136
0.012591
0.018687
0.017674
0.014619
0.016985
0.011638
0.026601
0.016847
0.029051
0.016782
0.030360
0.033196
0.034294
0.021304
0.024637
0.028807
0.022364
0.026209
0.027034
0.020299
0.011621
0.029853
0.009538
0.007879
0.013050
0.021961
0.028924
0.009253
0.016565
0.008740
0.017171
0.032686
0.009794
0.019794
0.032019
0.012961
0.030799
0.018759
0.009029
0.026606
0.019033
0.039988
0.014096
0.010975
0.012970
0.016945
0.008430
0.019529
0.025347
0.016884
0.010831
0.018539
0.008659
0.017943
0.027453
0.019137
0.027609
0.021864
0.016308
0.017365
0.008851
0.010284
0.033766
0.023457
0.034091
0.014341
0.037610
0.009722
0.023884
0.007775
0.019233
0.013066
0.016510
0.010321
0.015573
0.012101
0.017296
0.020197
0.008463
0.012375
0.022885
0.035145
0.015728
0.025577
0.039045
0.037121
0.038961
0.030577
0.017284
0.022337
0.043529
0.019122
0.040890
0.018422
0.038748
0.019154
0.032957
0.017153
0.026541
0.017222
0.035026
0.013286
0.019742
0.044153
0.033725
0.031273
0.045692
0.017812
0.036488
0.012282
0.035966
0.022618
0.043612
0.018786
0.035994
0.024169
0.014651
0.009712
0.023737
0.030866
0.035897
0.029331
0.043271
0.026699
0.015841
0.029180
0.017556
0.022688
0.014772
0.025419
0.021136
0.038923
0.020469
0.041069
0.039027
0.041770
0.027634
0.045375
0.032290
0.040594
0.033642
0.019594
0.025827
0.037813
0.011434
0.037081
0.009232
0.008234
0.016595
0.027501
0.031637
0.018630
0.012547
0.019865
0.011943
0.032259
0.025129
0.009375
0.029218
0.029340
0.022827
0.026755
0.023394
0.018103
0.034922
0.025787
0.014372
0.016877
0.021743
0.013113
0.018529
0.013922
0.028918
0.021853
0.023505
0.010769
0.020637
0.010693
0.031411
0.029676
0.027237
0.024643
0.025145
0.016489
0.018530
0.029421
0.020055
0.032875
0.029460
0.033212
0.023038
0.022872
0.019667
0.018959
0.015670
0.016819
0.016876
0.018812
0.012634
0.020470
0.019431
0.008964
0.025005
0.022159
0.024131
0.034670
0.020922
0.035422
0.026995
0.033078
0.010136
0.022712
0.031420
0.018796
0.023564
0.009371
0.012110
0.032143
0.013325
0.008573
0.024241
0.031671
0.024546
0.024895
0.029686
0.031017
0.022921
0.027989
0.018459
0.015746
0.042496
0.035380
0.034218
0.031585
0.031464
0.033728
0.031194
0.032282
0.032620
0.027765
0.011954
0.017789
0.025228
0.040578
0.047453
0.028074
0.033510
0.040917
0.033219
0.031402
0.026005
0.020161
0.019364
0.037973
0.028161
0.020363
0.030813
0.031178
0.012579
0.032693
0.032055
0.023633
0.029449
0.009356
0.013133
0.023520
0.018230
0.039365
0.033942
0.029545
0.033706
0.014155
0.013509
0.010545
0.023930
0.037118
0.011157
0.017178
0.030454
0.034213
0.033103
0.030786
0.011537
0.019591
0.027695
0.014990
0.012409
0.027640
0.028830
0.017157
0.022326
0.027880
0.031820
0.029467
0.034923
0.036471
0.045305
0.039316
0.041606
0.025293
0.035668
0.043489
0.030299
0.019697
0.024188
0.016658
0.011123
0.012747
0.036554
0.017757
0.030543
0.012052
