# vtk DataFile Version 2.0
Unstructured Grid Example
ASCII
DATASET UNSTRUCTURED_GRID
POINTS 1108 float
1.015361 0.019909 -0.003267 
-1.015121 -0.019628 0.003072 
0.019827 0.979411 0.005425 
-0.019817 -0.979273 -0.005478 
-0.003247 0.005282 1.006052 
0.003316 -0.005491 -1.005324 
1.214420 0.013153 -0.002167 
-1.214406 -0.013288 0.002035 
0.013133 1.180539 0.003385 
-0.013409 -1.180361 -0.003573 
-0.002098 0.003519 1.205676 
0.002066 -0.003409 -1.205294 
1.002794 0.213551 -0.002017 
0.950509 0.399810 -0.000978 
0.859967 0.570295 0.000050 
0.734775 0.718078 0.001439 
0.580898 0.836064 0.002689 
0.405526 0.920345 0.003728 
0.215798 0.968701 0.004593 
-0.175571 0.953824 0.005875 
-0.363211 0.892274 0.006220 
-0.537829 0.798293 0.006202 
-0.692686 0.675687 0.005960 
-0.822222 0.527303 0.005597 
-0.922310 0.357947 0.004964 
-0.987704 0.173389 0.004114 
-1.002465 -0.213388 0.001906 
-0.950295 -0.399702 0.001068 
-0.859415 -0.570113 -0.000170 
-0.734271 -0.718131 -0.001522 
-0.580763 -0.836345 -0.002657 
-0.405612 -0.920725 -0.003676 
-0.215976 -0.968638 -0.004715 
0.175398 -0.953707 -0.006018 
0.363082 -0.892394 -0.006312 
0.537693 -0.798241 -0.006349 
0.692391 -0.675674 -0.006066 
0.822209 -0.527277 -0.005660 
0.922090 -0.357722 -0.005108 
0.987618 -0.173127 -0.004305 
-0.007199 -0.187307 0.984532 
-0.010665 -0.372040 0.924493 
-0.013861 -0.541402 0.828860 
-0.016370 -0.689650 0.702029 
-0.018323 -0.810927 0.549204 
-0.019502 -0.901681 0.375865 
-0.020311 -0.958964 0.189014 
-0.018783 -0.963020 -0.200116 
-0.017062 -0.910031 -0.387774 
-0.014539 -0.822012 -0.561115 
-0.011498 -0.701368 -0.713494 
-0.008259 -0.553233 -0.838775 
-0.004441 -0.383331 -0.931457 
-0.000442 -0.198445 -0.987758 
0.006956 0.187572 -0.984061 
0.010540 0.372129 -0.923866 
0.013770 0.541561 -0.828909 
0.016187 0.689849 -0.702221 
0.018108 0.811099 -0.549314 
0.019323 0.901849 -0.375977 
0.020124 0.958974 -0.189081 
0.018656 0.962992 0.199885 
0.016963 0.909928 0.387425 
0.014663 0.821534 0.561111 
0.011573 0.701139 0.713431 
0.008532 0.553133 0.838699 
0.004652 0.383100 0.931758 
0.000548 0.198111 0.988145 
0.994331 0.020403 0.193240 
0.935074 0.020354 0.382309 
0.840327 0.019209 0.556469 
0.713305 0.017692 0.708860 
0.559297 0.015559 0.834098 
0.384156 0.012313 0.927548 
0.194281 0.008660 0.985594 
-0.200559 0.001080 0.988140 
-0.391122 -0.002470 0.932358 
-0.566192 -0.006816 0.840299 
-0.719635 -0.010023 0.715722 
-0.845827 -0.013333 0.563429 
-0.939497 -0.015998 0.389090 
-0.996680 -0.018099 0.199746 
-0.994280 -0.020213 -0.193447 
-0.935144 -0.020316 -0.382517 
-0.840460 -0.019040 -0.556668 
-0.713451 -0.017601 -0.708953 
-0.559632 -0.015249 -0.833889 
-0.384049 -0.011918 -0.927116 
-0.193989 -0.008669 -0.984870 
0.200850 -0.001541 -0.987836 
0.390813 0.002511 -0.932032 
0.566147 0.006654 -0.840099 
0.719875 0.010099 -0.715778 
0.846168 0.013394 -0.563515 
0.939594 0.016301 -0.389220 
0.996680 0.018486 -0.200058 
1.206072 0.201137 -0.001588 
1.166459 0.385218 -0.000877 
1.096286 0.560173 -0.000187 
0.996991 0.720406 0.000474 
0.872266 0.861415 0.000818 
0.726042 0.979554 0.001666 
0.562215 1.072013 0.002172 
0.385422 1.136707 0.002638 
0.200851 1.172915 0.003183 
-0.173497 1.159468 0.003697 
-0.355033 1.111123 0.004166 
-0.526890 1.037081 0.004142 
-0.687186 0.940295 0.004392 
-0.832359 0.821379 0.003948 
-0.957962 0.681619 0.003671 
-1.061597 0.525077 0.003508 
-1.140801 0.354655 0.003129 
-1.192546 0.173743 0.002737 
-1.205696 -0.200933 0.001542 
-1.166180 -0.384806 0.000668 
-1.095985 -0.560055 0.000098 
-0.996608 -0.719952 -0.000501 
-0.872480 -0.860986 -0.000877 
-0.726251 -0.979492 -0.001788 
-0.562341 -1.072253 -0.002204 
-0.385467 -1.136914 -0.002739 
-0.200861 -1.172827 -0.003071 
0.173462 -1.159500 -0.003767 
0.354841 -1.111156 -0.004150 
0.526820 -1.037053 -0.004247 
0.687093 -0.940249 -0.004429 
0.832205 -0.821210 -0.004027 
0.957754 -0.681459 -0.003729 
1.061448 -0.524887 -0.003572 
1.140596 -0.354536 -0.003187 
1.192463 -0.173761 -0.002800 
-0.012734 -1.167994 -0.190072 
-0.011876 -1.127332 -0.372835 
-0.010769 -1.058894 -0.547138 
-0.009658 -0.964036 -0.708480 
-0.007727 -0.844752 -0.853097 
-0.005667 -0.703925 -0.976591 
-0.003917 -0.545299 -1.075989 
-0.001969 -0.372421 -1.148572 
-0.000201 -0.189855 -1.192143 
0.004428 0.182615 -1.188301 
0.006146 0.364703 -1.141769 
0.007850 0.535971 -1.066901 
0.009368 0.693858 -0.965896 
0.010562 0.833853 -0.842203 
0.012187 0.953223 -0.697791 
0.012591 1.048911 -0.537329 
0.013047 1.120012 -0.364660 
0.013345 1.164087 -0.182772 
0.012748 1.168042 0.190168 
0.011898 1.127239 0.372699 
0.010724 1.058175 0.547417 
0.009880 0.963525 0.708428 
0.007870 0.844510 0.852910 
0.005327 0.703889 0.976681 
0.003962 0.545286 1.075990 
0.002063 0.372467 1.148798 
0.000212 0.190036 1.192502 
-0.004250 -0.183281 1.188909 
-0.006138 -0.364513 1.142145 
-0.008012 -0.536156 1.066932 
-0.009440 -0.693824 0.965913 
-0.010543 -0.833736 0.842037 
-0.012284 -0.953085 0.697693 
-0.012681 -1.048721 0.537235 
-0.013145 -1.119907 0.364649 
-0.013416 -1.164057 0.182722 
-1.200410 -0.012381 0.191671 
-1.156557 -0.011559 0.376308 
-1.083702 -0.010062 0.551689 
-0.984171 -0.008880 0.713006 
-0.860066 -0.006654 0.856978 
-0.714745 -0.004713 0.980138 
-0.552960 -0.002890 1.078365 
-0.376319 -0.000771 1.149127 
-0.191427 0.001248 1.191998 
0.187112 0.005577 1.189858 
0.371448 0.007644 1.145219 
0.546800 0.009196 1.072499 
0.708689 0.010198 0.973720 
0.853589 0.011830 0.850994 
0.977814 0.013025 0.707407 
1.078622 0.013209 0.546068 
1.152541 0.013575 0.371515 
1.198147 0.013577 0.187068 
1.200601 0.012361 -0.191716 
1.156799 0.011513 -0.376454 
1.084142 0.010035 -0.551791 
0.984454 0.008722 -0.713132 
0.860119 0.006669 -0.857186 
0.714586 0.004908 -0.980128 
0.552841 0.002746 -1.077977 
0.376647 0.000643 -1.148795 
0.191109 -0.000790 -1.191739 
-0.187146 -0.005390 -1.189288 
-0.371397 -0.008031 -1.144483 
-0.546621 -0.009137 -1.072299 
-0.708321 -0.010672 -0.973805 
-0.853600 -0.011728 -0.851122 
-0.977906 -0.012867 -0.707513 
-1.078744 -0.013052 -0.546171 
-1.152626 -0.013444 -0.371585 
-1.198106 -0.013494 -0.187116 
0.819057 -0.376507 -0.420150 
0.404363 -0.771300 -0.447045 
0.394010 -0.369488 -0.845267 
0.897012 -0.278465 -0.342344 
0.280387 -0.871062 -0.338964 
0.684575 -0.321545 -0.656080 
0.550094 -0.610776 -0.544627 
0.864554 -0.454976 -0.113718 
0.172729 -0.611265 -0.769837 
0.619493 -0.161535 -0.779509 
0.883362 -0.139803 -0.467195 
0.192591 -0.834721 -0.484946 
0.964540 -0.119329 -0.271597 
0.808170 -0.275697 -0.523834 
0.673823 -0.618631 -0.348211 
0.447248 -0.832887 -0.206374 
0.614266 -0.727126 -0.179931 
0.524524 -0.463836 -0.709492 
0.806627 -0.128245 -0.594033 
0.544584 -0.727414 -0.352800 
0.996752 -0.102665 -0.118130 
0.761996 -0.588979 -0.157096 
0.135065 -0.927342 -0.282104 
0.941141 -0.284183 -0.164192 
0.733951 -0.449929 -0.492093 
0.250312 -0.924159 -0.157364 
0.552847 -0.290488 -0.786691 
0.324515 -0.689457 -0.630416 
0.830681 -0.445450 -0.295173 
0.503909 -0.174222 -0.856253 
0.136301 -0.746512 -0.640480 
0.190876 -0.475472 -0.861881 
0.176265 -0.315962 -0.939011 
0.346360 -0.545054 -0.759007 
0.635858 -0.464643 -0.605883 
0.105466 -0.960871 -0.130366 
0.442147 -0.586565 -0.666366 
0.332461 -0.212237 -0.927340 
0.208478 -0.132410 -0.977285 
0.523153 0.584500 -0.642404 
0.528736 0.785205 -0.359799 
0.833171 0.384507 -0.461920 
0.417921 0.467478 -0.791237 
0.373102 0.879587 -0.300061 
0.303753 0.310443 -0.908757 
0.178408 0.159642 -0.977140 
0.781137 0.226945 -0.618999 
0.697113 0.545270 -0.513127 
0.527669 0.848443 -0.169294 
0.617380 0.182702 -0.787216 
0.203651 0.863942 -0.437747 
0.183103 0.466793 -0.864690 
0.580329 0.686998 -0.474172 
0.172519 0.938687 -0.251579 
0.401055 0.140923 -0.917703 
0.134354 0.315504 -0.941129 
0.652109 0.709564 -0.338180 
0.131160 0.613234 -0.769628 
0.186449 0.742627 -0.630400 
0.319558 0.618674 -0.720715 
0.885146 0.500990 -0.174110 
0.629646 0.399304 -0.695021 
0.397922 0.761987 -0.519256 
0.788088 0.565310 -0.340950 
0.146096 0.969589 -0.106191 
0.311361 0.937935 -0.136439 
0.735619 0.700504 -0.149036 
0.967727 0.163533 -0.291452 
0.489189 0.307722 -0.832921 
0.881536 0.424148 -0.321831 
0.897562 0.184685 -0.457163 
0.964806 0.309547 -0.181226 
0.920303 0.298727 -0.347198 
1.003428 0.146662 -0.136038 
0.748349 0.393710 -0.577883 
0.475014 0.469208 0.766867 
0.474544 0.809555 0.389165 
0.854916 0.428550 0.376691 
0.340601 0.322148 0.897092 
0.324677 0.902198 0.301533 
0.929328 0.355441 0.257715 
0.982402 0.187945 0.210166 
0.571936 0.642041 0.551141 
0.116955 0.482242 0.878238 
0.765740 0.183315 0.641076 
0.448740 0.171874 0.888210 
0.451953 0.885161 0.187707 
0.891752 0.489415 0.170000 
0.264827 0.149895 0.960947 
0.274977 0.948886 0.146846 
0.963079 0.340401 0.123853 
0.622640 0.174402 0.778484 
0.526356 0.303457 0.812572 
0.332971 0.632840 0.717185 
0.803132 0.634660 0.116512 
0.695379 0.734101 0.173556 
0.606781 0.506670 0.646726 
0.208276 0.751761 0.635211 
0.785115 0.592276 0.302476 
0.653409 0.696067 0.372418 
0.408133 0.724162 0.581878 
0.576541 0.809919 0.227203 
0.130121 0.971578 0.128512 
0.112909 0.129410 0.992609 
0.482871 0.603164 0.662955 
0.162606 0.613256 0.783069 
0.724647 0.521097 0.504859 
0.658013 0.364228 0.688064 
0.163070 0.313937 0.945583 
0.184976 0.939147 0.273521 
0.802882 0.336191 0.537130 
0.854090 0.158934 0.526674 
0.234379 0.860449 0.459016 
0.905328 0.251455 0.401952 
0.266879 0.481319 0.848934 
0.493095 -0.754581 0.332541 
0.321347 -0.354768 0.864218 
0.307733 -0.842284 0.350133 
0.138451 -0.449571 0.869208 
0.512080 -0.141735 0.843294 
0.406663 -0.851176 0.179581 
0.594435 -0.519147 0.568635 
0.262760 -0.161884 0.949204 
0.207553 -0.927157 0.171642 
0.909966 -0.348373 0.157640 
0.762514 -0.375099 0.491552 
0.724137 -0.628505 0.134167 
0.870906 -0.166419 0.455681 
0.960262 -0.158891 0.231132 
0.500640 -0.302418 0.795900 
0.550569 -0.645665 0.460900 
0.593394 -0.740829 0.154865 
0.693455 -0.606236 0.296066 
[...]
POINT_DATA 1108
SCALARS u float 1
LOOKUP_TABLE default
0.025357
0.024966
0.029093
0.029195
0.008664
0.008336
0.019638
0.019704
0.023720
0.024047
0.007001
0.006627
0.028797
0.031676
0.032077
0.029799
0.025882
0.023413
0.024412
0.033800
0.037640
0.038130
0.035081
0.030263
0.025279
0.023147
0.028433
0.031441
0.031503
0.029355
0.025797
0.023434
0.024617
0.034018
0.037622
0.038263
0.035233
0.030304
0.025541
0.023401
0.011244
0.015080
0.019991
0.024464
0.028254
0.030325
0.030424
0.026337
0.022557
0.018209
0.014351
0.011271
0.008807
0.007750
0.010753
0.014916
0.019810
0.024160
0.027964
0.030061
0.030279
0.026223
0.022470
0.018559
0.014476
0.011446
0.009159
0.007974
0.024560
0.023232
0.021171
0.018828
0.016214
0.012932
0.009938
0.009229
0.012214
0.015403
0.018211
0.021110
0.023257
0.024533
0.024359
0.023231
0.021084
0.018800
0.015965
0.012425
0.009646
0.009234
0.011783
0.015186
0.018444
0.021414
0.023567
0.024881
0.024841
0.029029
0.031144
0.030200
0.027023
0.022528
0.017784
0.015523
0.018278
0.029656
0.034283
0.037009
0.035787
0.031846
0.027232
0.021419
0.016473
0.016015
0.024412
0.028577
0.030823
0.029643
0.027013
0.022706
0.017950
0.015523
0.018325
0.029653
0.034340
0.037079
0.035878
0.032077
0.027478
0.021658
0.016607
0.015972
0.021555
0.018421
0.015096
0.012213
0.009739
0.008211
0.007848
0.007732
0.007241
0.007426
0.008686
0.012029
0.015617
0.019155
0.022698
0.025022
0.025690
0.025484
0.021536
0.018491
0.015609
0.012664
0.009864
0.008052
0.007870
0.007980
0.007638
0.007165
0.008844
0.011995
0.015680
0.019290
0.022890
0.025250
0.025829
0.025556
0.019986
0.019937
0.018946
0.017772
0.015773
0.014052
0.012608
0.009622
0.007820
0.007275
0.008628
0.009972
0.011118
0.013101
0.014927
0.016271
0.017659
0.018755
0.020128
0.020137
0.019307
0.017961
0.015930
0.014006
0.012218
0.009540
0.007384
0.006774
0.008670
0.009818
0.011475
0.013038
0.014848
0.016224
0.017616
0.018664
0.020923
0.026003
0.010832
0.021150
0.028728
0.016036
0.021592
0.026935
0.013071
0.014473
0.020274
0.023010
0.022545
0.018707
0.027422
0.034382
0.034035
0.015014
0.018470
0.029338
0.023377
0.030237
0.027961
0.023214
0.020743
0.033077
0.012990
0.018862
0.024136
0.012438
0.016986
0.009706
0.007932
0.013820
0.017741
0.030639
0.017144
0.009395
0.008328
0.021505
0.023925
0.028072
0.017770
0.023293
0.013791
0.010565
0.023616
0.025953
0.024665
0.018664
0.024619
0.016285
0.024255
0.026342
0.013347
0.013166
0.026660
0.019960
0.022384
0.018890
0.032015
0.022099
0.021771
0.029419
0.026503
0.023861
0.029518
0.027127
0.017220
0.030196
0.026188
0.030510
0.028993
0.027690
0.025622
0.018496
0.022972
0.028856
0.013766
0.021579
0.029389
0.027365
0.023632
0.011769
0.021496
0.014354
0.023313
0.031533
0.010753
0.022744
0.030480
0.018029
0.017208
0.017106
0.030972
0.028641
0.022823
0.016478
0.029494
0.027023
0.020171
0.025663
0.024963
0.008876
0.020514
0.013873
0.026424
0.021737
0.010428
0.022254
0.025311
0.023113
0.019451
0.026039
0.013862
0.039549
0.019985
0.038330
0.019673
0.016833
0.039880
0.031499
0.013486
0.036873
0.026462
0.027502
0.035047
0.022752
0.023674
0.021256
0.036152
0.039021
0.035448
0.010359
0.014375
0.032024
0.034446
0.036440
0.030533
0.033453
0.021215
0.036146
0.027687
0.032530
0.029932
0.025168
0.032184
0.025925
0.025305
0.018987
0.016432
0.025813
0.033009
0.021635
0.023926
0.027350
0.017781
0.023335
0.014154
0.010822
0.023460
0.025837
0.024658
0.018802
0.024813
0.016303
0.023948
0.026417
0.013627
0.013150
0.026365
0.020097
0.022587
0.019149
0.031562
0.022096
0.021999
0.029504
0.026671
0.023897
0.029004
0.026712
0.017340
0.029838
0.025665
0.029989
0.028355
0.027388
0.025350
0.018332
0.023012
0.028819
0.013295
0.021289
0.029406
0.027214
0.023440
0.011449
0.021597
0.013911
0.023240
0.030950
0.010502
0.022871
0.030273
0.018134
0.017167
0.017158
0.030560
0.028109
0.022546
0.016573
0.029600
0.026860
0.020113
0.025589
0.025037
0.008494
0.020489
0.013735
0.026090
0.021646
0.010126
0.022098
0.025242
0.023198
0.019369
0.026350
0.013950
0.039231
0.019695
0.037946
0.019140
0.016699
0.039631
0.031167
0.012998
0.036654
0.026224
0.027272
0.034847
0.022587
0.023479
0.021021
0.035808
0.038839
0.035093
0.009886
0.014030
0.031646
0.034078
0.036129
0.030334
0.033032
0.021024
0.035745
0.027207
0.032240
0.029678
0.024914
0.031843
0.025676
0.024967
0.018935
0.016145
0.025580
0.032853
0.020841
0.026356
0.011017
0.020984
0.029136
0.016000
0.021724
0.026777
0.013278
0.014501
0.020010
0.023488
0.022301
0.018581
0.027326
0.034352
0.033506
0.015150
0.018323
0.029008
0.023055
0.030224
0.027896
0.022937
0.020696
0.033009
0.013072
0.019184
0.024086
0.012613
0.017247
0.009958
0.008082
0.014121
0.017795
0.030383
0.017435
0.009541
0.008460
0.032775
0.025649
0.016015
0.018761
0.036679
0.016063
0.034511
0.011570
0.015564
0.032803
0.007606
0.016297
0.027718
0.022286
0.014483
0.029436
0.011095
0.017133
0.037245
0.028332
0.026345
0.038619
0.015042
0.030718
0.014235
0.030240
0.018989
0.036867
0.015927
0.030443
0.020301
0.020996
0.026003
0.030152
0.024896
0.036460
0.022422
0.013309
0.024541
0.015611
0.019648
0.012507
0.021348
0.017810
0.032752
0.017181
0.034547
0.032814
0.035302
0.023224
0.038286
0.027182
0.034196
0.028461
0.016618
0.031859
0.022013
0.013636
0.031248
0.009801
0.009611
0.008665
0.023529
0.017572
0.011543
0.015496
0.028688
0.016871
0.027478
0.010147
0.017455
0.026752
0.008112
0.021286
0.013952
0.012013
0.017965
0.022629
0.014923
0.011302
0.028029
0.019793
0.019862
0.030028
0.020168
0.024106
0.009608
0.020625
0.015783
0.029945
0.021133
0.023688
0.015029
0.013634
0.018995
0.021359
0.016438
0.027097
0.015305
0.017608
0.019422
0.010998
0.017726
0.014639
0.017483
0.014445
0.025004
0.015705
0.026802
0.024575
0.028476
0.016927
0.030197
0.017824
0.024532
0.023131
0.021102
0.014664
0.023403
0.013564
0.024973
0.012009
0.008432
0.009778
0.021014
0.020852
0.015131
0.012043
0.025382
0.010452
0.025751
0.014334
0.008430
0.021617
0.016937
0.027235
0.012753
0.012812
0.030414
0.010359
0.020276
0.012340
0.022721
0.017199
0.012946
0.019063
0.029213
0.009719
0.013413
0.022078
0.010537
0.021216
0.025781
0.008471
0.018730
0.016405
0.023524
0.024129
0.019291
0.026368
0.015497
0.028646
0.009694
0.014335
0.022983
0.011344
0.025305
0.013504
0.028604
0.012798
0.028128
0.018607
0.014710
0.013527
0.023189
0.024655
0.018971
0.022475
0.007227
0.016379
0.026879
0.017732
0.015784
0.016159
0.015985
0.015155
0.011035
0.018785
0.026818
0.007842
0.013979
0.007425
0.014481
0.008449
0.016722
0.011207
0.026049
0.016232
0.029964
0.007710
0.022431
0.016860
0.033656
0.011884
0.009296
0.011091
0.014291
0.007185
0.016379
0.032756
0.014433
0.009379
0.015631
0.007507
0.015183
0.023262
0.022565
0.031192
0.016615
0.024409
0.018867
0.014117
0.014713
0.007596
0.008711
0.028122
0.020758
0.029072
0.012328
0.032033
0.008429
0.020287
0.006611
0.016218
0.011021
0.013894
0.008825
0.013146
0.010400
0.014739
0.017157
0.007568
0.019660
0.010805
0.028729
0.013275
0.026288
0.025790
0.024938
0.019361
0.012626
0.027355
0.015265
0.025699
0.014352
0.025604
0.015725
0.013197
0.019164
0.016106
0.012521
0.012125
0.019422
0.009703
0.012864
0.021874
0.028025
0.029967
0.020767
0.014273
0.021268
0.011123
0.022495
0.029008
0.015717
0.016885
0.021678
0.016051
0.009750
0.008296
0.018816
0.015884
0.019196
0.021713
0.017753
0.026454
0.010698
0.015877
0.015017
0.012421
0.014431
0.009888
0.022602
0.014314
0.024683
0.014258
0.025795
0.028205
0.029137
0.018101
0.020932
0.024476
0.019002
0.022269
0.022970
0.017247
0.009874
0.025365
0.008104
0.006695
0.011088
0.018659
0.024576
0.007862
0.014074
0.007426
0.014589
0.027772
0.008321
0.016818
0.027205
0.011012
0.026169
0.015938
0.007671
0.022605
0.016171
0.033976
0.011977
0.009325
0.011020
0.014397
0.007163
0.016593
0.021536
0.014346
0.009202
0.015752
0.007357
0.015245
0.023325
0.016260
0.023458
0.018577
0.013856
0.014754
0.007520
0.008737
0.028689
0.019930
0.028965
0.012185
0.031955
0.008260
0.020293
0.006606
0.016341
0.011101
0.014028
0.008770
0.013232
0.010282
0.014696
0.017161
0.007191
0.010514
0.019444
0.029861
0.013364
0.021731
0.033175
0.031540
0.033103
0.025980
0.014685
0.018979
0.036984
0.016247
0.034742
0.015652
0.032922
0.016275
0.028002
0.014574
0.022550
0.014632
0.029759
0.011289
0.016773
0.037515
0.028654
0.026571
0.038822
0.015134
0.031002
0.010436
0.030558
0.019217
0.037055
0.015962
0.030582
0.020535
0.012448
0.008252
0.020168
0.026225
0.030500
0.024921
0.036765
0.022684
0.013459
0.024793
0.014917
0.019277
0.012551
0.021597
0.017958
0.033071
0.017391
0.034894
0.033159
0.035490
0.023479
0.038553
0.027435
0.034490
0.028584
0.016648
0.021944
0.032128
0.009715
0.031506
0.007844
0.006996
0.014100
0.023366
0.026880
0.015829
0.010661
0.016878
0.010147
0.027409
0.021350
0.007966
0.024825
0.024929
0.019395
0.022732
0.019876
0.015381
0.029671
0.021910
0.012211
0.014340
0.018474
0.011142
0.015743
0.011829
0.024570
0.018568
0.019971
0.009150
0.017535
0.009085
0.026688
0.025214
0.023142
0.020938
0.021365
0.014010
0.015744
0.024997
0.017040
0.027932
0.025031
0.028219
0.019574
0.019433
0.016710
0.016109
0.013314
0.014290
0.014338
0.015984
0.010735
0.017392
0.016510
0.007616
0.021245
0.018828
0.020503
0.029457
0.017776
0.030096
0.022936
0.028104
0.008612
0.019298
0.026696
0.015970
0.020021
0.007962
0.010290
0.027310
0.011321
0.007284
0.020596
0.026909
0.020855
0.021152
0.025222
0.026353
0.019475
0.023781
0.015684
0.013379
0.036107
0.030061
0.029073
0.026836
0.026733
0.028657
0.026504
0.027428
0.027715
0.023591
0.010156
0.015114
0.021435
0.034477
0.040319
0.023853
0.028472
0.034765
0.028224
0.026681
0.022095
0.017130
0.016453
0.032263
0.023927
0.017301
0.026180
0.026490
0.010688
0.027778
0.027236
0.020080
0.025022
0.007949
0.011159
0.019984
0.015489
0.033447
0.028838
0.025103
0.028638
0.012027
0.011478
0.008959
0.020332
0.031537
0.009480
0.014595
0.025875
0.029069
0.028126
0.026157
0.009802
0.016645
0.023531
0.012736
0.010543
0.023484
0.024495
0.014578
0.018969
0.023688
0.027036
0.025037
0.029672
0.030987
0.038494
0.033405
0.035351
0.021490
0.030305
0.036950
0.025743
0.016736
0.020551
0.014154
0.009451
0.010830
0.031058
0.015087
0.025951
0.010240
