# vtk DataFile Version 2.0
Unstructured Grid Example
ASCII
DATASET UNSTRUCTURED_GRID
POINTS 1108 float
0.997591 -0.000922 0.022745 
-0.997590 0.000895 -0.022531 
-0.001181 0.986804 0.003474 
0.001020 -0.986506 -0.003610 
0.022382 0.003498 1.015764 
-0.022287 -0.003626 -1.015637 
1.197699 -0.000641 0.015073 
-1.197736 0.000409 -0.015085 
-0.000837 1.187219 0.002357 
0.000770 -1.187405 -0.002557 
0.014950 0.002361 1.214836 
-0.015028 -0.002449 -1.214917 
0.978069 0.192371 0.022875 
0.920660 0.377779 0.022270 
0.827595 0.548344 0.020639 
0.702844 0.697819 0.018550 
0.551460 0.820220 0.015064 
0.379394 0.911177 0.011649 
0.192863 0.967380 0.007781 
-0.195166 0.968592 -0.000589 
-0.381544 0.912946 -0.005066 
-0.553947 0.822256 -0.009640 
-0.704977 0.700033 -0.013617 
-0.828855 0.550616 -0.016591 
-0.921784 0.379914 -0.019614 
-0.978553 0.194133 -0.021399 
-0.978056 -0.192555 -0.022685 
-0.920956 -0.377956 -0.022085 
-0.828172 -0.548603 -0.020489 
-0.703386 -0.697973 -0.018388 
-0.551744 -0.820210 -0.015261 
-0.379532 -0.911152 -0.011961 
-0.192878 -0.967463 -0.007728 
0.194845 -0.968225 0.000602 
0.381487 -0.912487 0.005006 
0.553847 -0.822086 0.009880 
0.705017 -0.699998 0.013560 
0.828889 -0.550557 0.016612 
0.921871 -0.379959 0.019662 
0.978541 -0.194204 0.021457 
0.022067 -0.190736 0.994582 
0.021079 -0.377088 0.934758 
0.019023 -0.548022 0.838745 
0.016465 -0.697424 0.710818 
0.013389 -0.819410 0.556811 
0.009333 -0.910430 0.381628 
0.005199 -0.966658 0.192536 
-0.003371 -0.969297 -0.199552 
-0.007608 -0.915349 -0.388973 
-0.011683 -0.826208 -0.564389 
-0.015069 -0.704958 -0.718605 
-0.017861 -0.555837 -0.845553 
-0.020242 -0.384515 -0.939884 
-0.021574 -0.197963 -0.997273 
-0.022038 0.190794 -0.994532 
-0.020841 0.377113 -0.934347 
-0.019189 0.547970 -0.838691 
-0.016563 0.697470 -0.711006 
-0.013349 0.819519 -0.556932 
-0.009488 0.910457 -0.381766 
-0.005396 0.966675 -0.192610 
0.003184 0.969286 0.199485 
0.007695 0.915224 0.389274 
0.011690 0.826273 0.564315 
0.015191 0.704864 0.718499 
0.018024 0.555774 0.845686 
0.020311 0.384392 0.939628 
0.021720 0.197834 0.997107 
0.987254 -0.000221 0.219795 
0.938616 0.000554 0.410807 
0.852830 0.001075 0.586633 
0.731800 0.001636 0.740294 
0.581306 0.002468 0.864479 
0.407801 0.002875 0.953560 
0.218619 0.003170 1.004213 
-0.172991 0.003486 0.987601 
-0.359853 0.003819 0.921641 
-0.532137 0.003340 0.821517 
-0.683418 0.003118 0.692455 
-0.809215 0.002924 0.537356 
-0.906336 0.002039 0.362730 
-0.969869 0.001526 0.173949 
-0.987284 0.000174 -0.219620 
-0.938432 -0.000539 -0.410601 
-0.852426 -0.001009 -0.586540 
-0.731524 -0.001626 -0.740176 
-0.581116 -0.002279 -0.864824 
-0.407813 -0.002810 -0.953607 
-0.218564 -0.003233 -1.004186 
0.173181 -0.003692 -0.987603 
0.359950 -0.003817 -0.921717 
0.532374 -0.003474 -0.821640 
0.683590 -0.003184 -0.692439 
0.809193 -0.002890 -0.537395 
0.906314 -0.002195 -0.362605 
0.970085 -0.001632 -0.173901 
1.182640 0.185951 0.015123 
1.138099 0.367766 0.015052 
1.065163 0.540372 0.014327 
0.966436 0.699200 0.013685 
0.843967 0.840317 0.012486 
0.700735 0.961077 0.010362 
0.540740 1.057835 0.008803 
0.367709 1.128704 0.006715 
0.185816 1.172313 0.004928 
-0.187431 1.173133 -0.000205 
-0.369289 1.130503 -0.002898 
-0.542551 1.059633 -0.004585 
-0.702392 0.963207 -0.006527 
-0.845881 0.842371 -0.008605 
-0.968480 0.700602 -0.011041 
-1.066562 0.541878 -0.012223 
-1.139257 0.368945 -0.013364 
-1.183227 0.186988 -0.014347 
-1.182731 -0.185941 -0.015191 
-1.138388 -0.367878 -0.015018 
-1.065622 -0.540523 -0.014357 
-0.966886 -0.699479 -0.013579 
-0.843985 -0.840518 -0.012105 
-0.700754 -0.961267 -0.010313 
-0.540861 -1.057814 -0.008701 
-0.367781 -1.128770 -0.006752 
-0.185832 -1.172249 -0.004948 
0.187244 -1.173044 0.000157 
0.369126 -1.130128 0.002819 
0.542302 -1.059460 0.004656 
0.702241 -0.963066 0.006669 
0.845773 -0.842464 0.008706 
0.968443 -0.700663 0.011255 
1.066565 -0.541933 0.012292 
1.139279 -0.369010 0.013377 
1.183209 -0.187111 0.014414 
-0.001954 -1.174044 -0.190483 
-0.003975 -1.132513 -0.373959 
-0.006271 -1.063503 -0.549314 
-0.007940 -0.968154 -0.712094 
-0.010138 -0.848465 -0.857434 
-0.012105 -0.707413 -0.982418 
-0.012963 -0.547628 -1.083253 
-0.013866 -0.373836 -1.156840 
-0.014643 -0.190400 -1.200974 
-0.014789 0.185427 -1.198611 
-0.014395 0.368454 -1.151902 
-0.013668 0.541211 -1.076948 
-0.012606 0.699995 -0.975349 
-0.011097 0.841127 -0.850723 
-0.008962 0.961433 -0.704825 
-0.007316 1.057535 -0.543134 
-0.005673 1.127887 -0.368869 
-0.003021 1.171735 -0.185301 
0.002060 1.174240 0.190594 
0.003940 1.132346 0.374132 
0.005806 1.063826 0.548779 
0.007900 0.968237 0.712096 
0.010139 0.848372 0.857478 
0.012322 0.707392 0.982128 
0.013070 0.547580 1.083179 
0.013980 0.373815 1.156637 
0.014706 0.190475 1.200912 
0.014941 -0.185556 1.198582 
0.014397 -0.368330 1.152166 
0.013651 -0.541361 1.076993 
0.012654 -0.700090 0.975110 
0.011030 -0.841163 0.850545 
0.008909 -0.961359 0.704682 
0.007284 -1.057438 0.543043 
0.005631 -1.127862 0.368742 
0.002960 -1.171679 0.185055 
-1.175299 0.000984 0.173333 
-1.125248 0.001085 0.355380 
-1.048920 0.001652 0.528183 
-0.949117 0.001634 0.688203 
-0.827594 0.002322 0.833137 
-0.685446 0.002328 0.958585 
-0.527303 0.002373 1.061224 
-0.355423 0.002299 1.140397 
-0.173403 0.002455 1.192140 
0.204385 0.002117 1.207467 
0.390004 0.002094 1.169170 
0.567175 0.001834 1.100831 
0.730040 0.001470 1.003010 
0.873114 0.001221 0.878575 
0.994037 0.001008 0.732613 
1.088982 0.000428 0.568400 
1.154662 0.000018 0.390518 
1.190783 -0.000273 0.204095 
1.175365 -0.001059 -0.173098 
1.125121 -0.001387 -0.355456 
1.048803 -0.001679 -0.528181 
0.949269 -0.001765 -0.688279 
0.827549 -0.002264 -0.833244 
0.685402 -0.002186 -0.958655 
0.527357 -0.002338 -1.061353 
0.355632 -0.002385 -1.140349 
0.173398 -0.002395 -1.192266 
-0.204250 -0.002076 -1.207329 
-0.389781 -0.002047 -1.169173 
-0.567186 -0.001926 -1.101032 
-0.729944 -0.001827 -1.002600 
-0.872984 -0.001208 -0.878400 
-0.993778 -0.000960 -0.732407 
-1.088636 -0.000366 -0.568204 
-1.154511 0.000015 -0.390440 
-1.190787 0.000238 -0.204048 
0.802271 -0.392289 -0.399032 
0.405549 -0.785226 -0.439610 
0.373850 -0.376425 -0.836279 
0.878174 -0.295760 -0.318943 
0.288504 -0.884344 -0.333641 
0.661337 -0.333258 -0.637077 
0.541907 -0.623747 -0.532541 
0.863808 -0.475940 -0.091491 
0.164168 -0.617020 -0.770387 
0.590178 -0.171951 -0.760750 
0.854524 -0.156005 -0.442294 
0.195859 -0.844362 -0.483101 
0.940706 -0.138091 -0.246010 
0.784375 -0.290060 -0.501540 
0.670921 -0.636220 -0.331875 
0.457919 -0.851719 -0.195725 
0.621844 -0.748349 -0.164122 
0.507835 -0.473552 -0.696873 
0.775151 -0.142404 -0.570017 
0.546218 -0.744489 -0.340956 
0.978824 -0.122672 -0.092462 
0.764576 -0.610057 -0.137697 
0.147013 -0.937597 -0.279764 
0.929784 -0.304055 -0.139940 
0.718683 -0.464290 -0.473490 
0.265139 -0.939448 -0.150977 
0.528356 -0.299510 -0.771226 
0.319189 -0.699445 -0.625441 
0.821369 -0.463521 -0.274324 
0.476221 -0.182288 -0.841430 
0.133817 -0.753088 -0.641183 
0.176422 -0.479863 -0.861945 
0.156743 -0.319180 -0.939789 
0.333871 -0.553134 -0.752658 
0.619646 -0.476368 -0.590265 
0.122496 -0.971984 -0.127002 
0.431575 -0.596719 -0.657071 
0.307955 -0.217167 -0.920495 
0.183542 -0.135362 -0.976520 
0.481999 0.570437 -0.626555 
0.491043 0.769816 -0.346689 
0.788661 0.363553 -0.436323 
0.379476 0.458434 -0.779380 
0.340310 0.870748 -0.292523 
0.269070 0.305917 -0.902894 
0.148276 0.158749 -0.978364 
0.738793 0.209489 -0.593306 
0.653401 0.525763 -0.491567 
0.494405 0.833189 -0.157320 
0.578346 0.169965 -0.766280 
0.171467 0.863252 -0.437041 
0.148829 0.466523 -0.865407 
0.539251 0.669637 -0.457331 
0.144163 0.939286 -0.251159 
0.367105 0.133940 -0.906432 
0.102438 0.316513 -0.944962 
0.611882 0.689877 -0.320327 
0.097179 0.615376 -0.773010 
0.152126 0.742730 -0.630677 
0.282651 0.612944 -0.714486 
0.846322 0.477535 -0.150952 
0.586777 0.383573 -0.673948 
0.360815 0.751956 -0.509927 
0.744984 0.542787 -0.318448 
0.121475 0.971313 -0.105709 
0.283151 0.932305 -0.131199 
0.698798 0.679083 -0.130687 
0.932474 0.142813 -0.264690 
0.450650 0.297215 -0.816834 
0.839121 0.401479 -0.296984 
0.856484 0.165082 -0.429936 
0.928876 0.287122 -0.155921 
0.879333 0.277046 -0.320711 
0.974409 0.125470 -0.110079 
0.703881 0.374763 -0.553499 
0.482364 0.463433 0.787506 
0.461011 0.800698 0.400850 
0.844386 0.411765 0.398839 
0.355979 0.317812 0.917052 
0.308582 0.897571 0.308857 
0.914064 0.336396 0.280886 
0.970067 0.167710 0.235665 
0.566369 0.632828 0.567924 
0.128049 0.482875 0.889002 
0.775440 0.168800 0.669150 
0.467771 0.163801 0.913488 
0.430846 0.875404 0.196948 
0.868622 0.469191 0.191154 
0.285615 0.145158 0.981263 
0.254731 0.945373 0.152026 
0.941037 0.319549 0.147313 
0.638535 0.162840 0.807205 
0.539895 0.295649 0.837143 
0.335544 0.630369 0.731389 
0.775806 0.614942 0.134883 
0.670891 0.717161 0.189274 
0.607776 0.497252 0.667400 
0.207358 0.752002 0.644885 
0.767571 0.575382 0.321288 
0.638569 0.682636 0.388477 
0.403614 0.719044 0.595006 
0.555325 0.796693 0.239550 
0.111060 0.974174 0.129645 
0.135105 0.126887 1.006858 
0.483322 0.596718 0.680304 
0.168269 0.613868 0.793646 
0.718965 0.507929 0.525329 
0.664611 0.353314 0.712704 
0.179717 0.312605 0.960066 
0.169715 0.939301 0.277482 
0.803435 0.321711 0.561490 
0.860389 0.142178 0.554471 
0.225574 0.859525 0.466053 
0.901445 0.233892 0.427493 
0.277176 0.479933 0.864375 
0.519886 -0.781157 0.354588 
0.351878 -0.370007 0.890170 
0.335222 -0.864228 0.366816 
0.169996 -0.460741 0.887120 
0.538487 -0.156750 0.874000 
0.429966 -0.874919 0.195864 
0.624132 -0.544805 0.599088 
0.290277 -0.171821 0.972197 
0.231383 -0.944834 0.181922 
0.917511 -0.371919 0.184047 
0.786385 -0.399913 0.523182 
0.740596 -0.654723 0.157236 
0.886061 -0.188160 0.486329 
0.963147 -0.180966 0.259033 
0.530179 -0.320897 0.827006 
0.578945 -0.672548 0.487451 
0.613913 -0.767512 0.175729 
0.716408 -0.633288 0.322159 
[...]
POINT_DATA 1108
SCALARS u float 1
LOOKUP_TABLE default
0.022891
0.022677
0.013697
0.014006
0.027599
0.027466
0.015261
0.015259
0.013024
0.012874
0.021194
0.021315
0.023196
0.023030
0.022208
0.021178
0.019245
0.017546
0.015659
0.012208
0.012104
0.013433
0.015492
0.017511
0.019919
0.021536
0.022989
0.022773
0.021891
0.020866
0.019347
0.017748
0.015559
0.012577
0.012501
0.013734
0.015452
0.017543
0.019951
0.021592
0.026387
0.024371
0.021721
0.019458
0.018062
0.016405
0.015269
0.012777
0.013047
0.015554
0.019076
0.022748
0.025870
0.027305
0.026327
0.023978
0.021866
0.019555
0.017969
0.016463
0.015309
0.012716
0.013325
0.015496
0.019121
0.022956
0.025758
0.027307
0.025538
0.031755
0.037714
0.041399
0.041929
0.038988
0.033354
0.023388
0.023256
0.025677
0.028027
0.028907
0.026647
0.023843
0.025377
0.031488
0.037408
0.041139
0.042074
0.039027
0.033302
0.023241
0.023153
0.025431
0.027899
0.028895
0.026767
0.023793
0.015444
0.015682
0.015528
0.015628
0.015624
0.014951
0.014941
0.014581
0.013952
0.012098
0.011253
0.010849
0.010453
0.010907
0.012242
0.012841
0.013644
0.014504
0.015498
0.015572
0.015401
0.015305
0.015210
0.014788
0.014864
0.014527
0.014016
0.012192
0.011615
0.011085
0.010688
0.010962
0.012419
0.012893
0.013644
0.014567
0.011683
0.010114
0.009610
0.010758
0.013494
0.016892
0.019322
0.021068
0.021670
0.020078
0.018053
0.016109
0.014423
0.013518
0.012989
0.013875
0.014664
0.014035
0.011541
0.010300
0.008865
0.010710
0.013525
0.016849
0.019334
0.020991
0.021677
0.020157
0.018227
0.016084
0.014357
0.013416
0.013012
0.013951
0.014688
0.014121
0.017508
0.022276
0.026269
0.027703
0.026086
0.023473
0.019367
0.015592
0.016089
0.027871
0.033925
0.038789
0.040600
0.038843
0.035829
0.030801
0.023820
0.017294
0.017669
0.022331
0.026363
0.027545
0.026055
0.023460
0.019262
0.015402
0.016138
0.027678
0.033799
0.038963
0.040231
0.038625
0.035503
0.030428
0.023671
0.017250
0.023335
0.014762
0.020426
0.023403
0.012946
0.024378
0.018762
0.018816
0.018079
0.025123
0.026520
0.013763
0.024026
0.025477
0.018947
0.013829
0.015849
0.020478
0.027647
0.016351
0.022241
0.017649
0.012510
0.021194
0.022839
0.012268
0.023056
0.015933
0.021023
0.023114
0.015891
0.020105
0.022053
0.017959
0.022055
0.012572
0.017960
0.021572
0.022735
0.026637
0.024084
0.028990
0.024864
0.021231
0.023253
0.023491
0.029594
0.028134
0.021326
0.027498
0.019915
0.022046
0.026579
0.017953
0.023997
0.023185
0.025354
0.020928
0.020681
0.023260
0.024502
0.028594
0.023850
0.027044
0.016082
0.018254
0.023114
0.025909
0.026061
0.026924
0.028844
0.024522
0.027326
0.023616
0.029339
0.035855
0.020191
0.029541
0.036432
0.015668
0.026797
0.026505
0.028362
0.027223
0.039545
0.040233
0.016898
0.023841
0.035860
0.014992
0.024133
0.042203
0.039983
0.028091
0.021630
0.020649
0.034174
0.021626
0.024774
0.024027
0.024745
0.018889
0.013434
0.031043
0.030800
0.025087
0.031227
0.038397
0.031435
0.013796
0.035577
0.036783
0.016840
0.031956
0.031508
0.016632
0.031978
0.014607
0.025732
0.039636
0.013191
0.028364
0.034043
0.013083
0.021886
0.030998
0.017184
0.033123
0.025926
0.036130
0.021698
0.015238
0.020621
0.030112
0.028841
0.017993
0.015260
0.018647
0.019537
0.024293
0.038313
0.015982
0.029687
0.025896
0.023910
0.034929
0.022178
0.021757
0.026499
0.040083
0.036924
0.027263
0.013456
0.026820
0.024244
0.028653
0.025193
0.021481
0.023222
0.023382
0.029438
0.028297
0.021554
0.027858
0.019924
0.022185
0.026173
0.017781
0.024096
0.023178
0.025334
0.020814
0.020658
0.023291
0.024038
0.028733
0.023901
0.026871
0.016075
0.018364
0.022916
0.025692
0.026056
0.026974
0.028718
0.024196
0.027139
0.023538
0.029525
0.035192
0.019965
0.029014
0.036472
0.015810
0.026600
0.026363
0.028440
0.027107
0.039506
0.040186
0.016986
0.023624
0.035720
0.014913
0.023924
0.041756
0.039895
0.027692
0.021300
0.020726
0.034021
0.021073
0.024651
0.023988
0.024649
0.018978
0.013579
0.031066
0.030123
0.025038
0.031031
0.038054
0.031536
0.014042
0.035249
0.036400
0.016946
0.031912
0.031493
0.016500
0.031903
0.014558
0.025772
0.039866
0.013029
0.028273
0.034037
0.012906
0.021850
0.030798
0.017143
0.032951
0.025768
0.035964
0.021761
0.014975
0.020495
0.029922
0.028667
0.017888
0.015296
0.018677
0.019559
0.024241
0.038195
0.016006
0.029618
0.025697
0.023616
0.034767
0.021966
0.021710
0.026340
0.039998
0.037004
0.027012
0.013285
0.023344
0.014757
0.020576
0.023509
0.013010
0.024385
0.018743
0.018850
0.018109
0.025245
0.026569
0.013337
0.023877
0.025467
0.018883
0.013628
0.015421
0.020516
0.027678
0.016236
0.022147
0.017577
0.012514
0.021237
0.022828
0.012079
0.023178
0.016143
0.020986
0.023279
0.015987
0.020221
0.022142
0.018129
0.022035
0.012417
0.018130
0.021661
0.022793
0.016973
0.025822
0.027235
0.019377
0.010041
0.019144
0.010711
0.028903
0.015402
0.012013
0.026091
0.035175
0.014235
0.019004
0.032359
0.011535
0.038497
0.018017
0.011549
0.017390
0.013338
0.009606
0.025140
0.012472
0.022710
0.021970
0.015146
0.010658
0.018936
0.012768
0.028772
0.031045
0.020941
0.020362
0.026694
0.011377
0.023950
0.037171
0.012368
0.035381
0.023069
0.039192
0.014342
0.030409
0.011718
0.025249
0.010427
0.012834
0.009913
0.016776
0.009719
0.023476
0.016269
0.012929
0.015604
0.015353
0.029728
0.033510
0.010920
0.035380
0.021729
0.031702
0.025093
0.025359
0.018642
0.019346
0.023201
0.017891
0.021446
0.015950
0.015813
0.017302
0.015954
0.028195
0.018814
0.017353
0.016997
0.028217
0.022712
0.014990
0.024127
0.022577
0.018587
0.019212
0.016909
0.024666
0.015463
0.026282
0.017562
0.018736
0.015822
0.019738
0.022534
0.021484
0.026275
0.027587
0.024524
0.026556
0.022246
0.015249
0.027762
0.018206
0.025205
0.015210
0.026372
0.020398
0.028481
0.020016
0.026301
0.021535
0.018761
0.020525
0.022603
0.024547
0.027396
0.016441
0.014215
0.022799
0.028620
0.020624
0.018116
0.017947
0.015979
0.015246
0.034111
0.022032
0.011687
0.034072
0.024144
0.031288
0.020519
0.010816
0.030469
0.019560
0.011852
0.015671
0.021454
0.015869
0.015574
0.023521
0.012865
0.011735
0.032526
0.038199
0.040098
0.033783
0.016407
0.025945
0.010486
0.028510
0.036049
0.026217
0.016406
0.026386
0.015656
0.020824
0.018483
0.023767
0.026152
0.025759
0.033967
0.014155
0.018389
0.013716
0.013926
0.014892
0.013554
0.027732
0.019157
0.030384
0.020275
0.037384
0.040024
0.037468
0.029551
0.027893
0.032275
0.016072
0.025520
0.027786
0.022018
0.011910
0.038106
0.012557
0.009836
0.012662
0.021496
0.016245
0.012195
0.014739
0.021104
0.014479
0.018921
0.015430
0.018605
0.011913
0.016010
0.011501
0.014439
0.013736
0.015268
0.009639
0.012606
0.024203
0.019515
0.020543
0.025947
0.015857
0.015389
0.012132
0.018776
0.015755
0.022980
0.017426
0.015728
0.013744
0.010492
0.011558
0.013808
0.016247
0.018841
0.016006
0.021600
0.015507
0.012750
0.012944
0.011421
0.013567
0.010566
0.012812
0.012904
0.018200
0.013508
0.018979
0.023586
0.026032
0.017352
0.023753
0.017562
0.021329
0.015689
0.018037
0.018878
0.014402
0.011561
0.024157
0.011407
0.011728
0.019358
0.030260
0.033377
0.021166
0.010767
0.020448
0.011080
0.016261
0.012775
0.018857
0.037287
0.039023
0.024075
0.012555
0.033087
0.022968
0.039993
0.014253
0.018757
0.015568
0.012765
0.010144
0.025867
0.037125
0.025496
0.016598
0.012110
0.011296
0.019473
0.032968
0.027798
0.032191
0.035633
0.026386
0.024976
0.030635
0.014487
0.025807
0.014305
0.037818
0.037342
0.028318
0.040108
0.018297
0.032163
0.015460
0.026809
0.011047
0.014190
0.014045
0.018953
0.011907
0.020279
0.025865
0.012653
0.016031
0.032236
0.020076
0.032537
0.013464
0.028185
0.025227
0.021452
0.016161
0.012121
0.014601
0.021070
0.014420
0.018929
0.011855
0.015388
0.018691
0.011979
0.011732
0.016029
0.011114
0.013739
0.015379
0.009564
0.012706
0.024194
0.019376
0.020381
0.025914
0.015830
0.015387
0.010545
0.018759
0.015616
0.023045
0.017419
0.015741
0.014184
0.013410
0.016576
0.018916
0.015801
0.021592
0.015318
0.012798
0.013249
0.011191
0.015096
0.010461
0.013020
0.012735
0.018211
0.013387
0.019047
0.023494
0.025942
0.017162
0.023725
0.017445
0.021342
0.015749
0.018028
0.014136
0.018976
0.013279
0.024064
0.010541
0.011965
0.011787
0.016939
0.025820
0.029426
0.019497
0.010099
0.019242
0.010841
0.015459
0.012190
0.035372
0.014247
0.036619
0.018960
0.032551
0.011528
0.038171
0.017995
0.011651
0.017517
0.013392
0.009724
0.025363
0.012492
0.034913
0.021942
0.015173
0.010796
0.019025
0.012880
0.028405
0.023172
0.031255
0.032077
0.021153
0.020365
0.026960
0.011346
0.024172
0.037348
0.012329
0.033937
0.023083
0.039238
0.014260
0.030619
0.011692
0.025490
0.010395
0.012967
0.010065
0.016834
0.009797
0.023647
0.016193
0.013047
0.015688
0.030138
0.015394
0.029798
0.011004
0.025894
0.024173
0.022668
0.026739
0.025690
0.019404
0.016662
0.017878
0.015575
0.022189
0.015741
0.016496
0.018275
0.022329
0.027695
0.028298
0.018887
0.023146
0.018070
0.027921
0.019204
0.020799
0.016756
0.015205
0.017569
0.017174
0.025599
0.026154
0.016984
0.015268
0.015904
0.015409
0.026970
0.025834
0.028549
0.027388
0.025627
0.021356
0.022359
0.017944
0.025957
0.022800
0.027914
0.018127
0.028275
0.022081
0.024349
0.020637
0.019504
0.018468
0.015422
0.019342
0.016488
0.024519
0.024919
0.017454
0.014285
0.026239
0.024015
0.022686
0.015168
0.018484
0.022652
0.017171
0.019977
0.020473
0.031911
0.022504
0.024574
0.028098
0.027485
0.010189
0.005289
0.020396
0.019057
0.023133
0.020498
0.033649
0.019529
0.021028
0.022593
0.034234
0.026057
0.004719
0.013195
0.016345
0.015712
0.019775
0.031754
0.026984
0.030229
0.026259
0.028108
0.022945
0.034029
0.032769
0.029572
0.028224
0.018330
0.034721
0.034069
0.013197
0.026920
0.011991
0.026077
0.039088
0.021582
0.027744
0.022770
0.037349
0.015813
0.015960
0.033735
0.017192
0.020191
0.031236
0.037630
0.026071
0.025330
0.023079
0.025036
0.018284
0.025506
0.029876
0.025521
0.025751
0.022256
0.023966
0.024632
0.025753
0.032472
0.038454
0.019839
0.027031
0.031981
0.032536
0.032599
0.036314
0.022020
0.026454
0.029941
0.036083
0.032384
0.030884
0.028405
0.032984
0.031135
0.038243
0.034130
0.027608
0.014432
0.015886
0.012530
0.020529
0.014700
0.014289
0.024881
0.028054
0.023707
0.024479
0.026171
0.026920
0.012870
0.009866
0.025533
0.007691
