# vtk DataFile Version 2.0
Unstructured Grid Example
ASCII
DATASET UNSTRUCTURED_GRID
POINTS 1108 float
1.002656 0.001017 -0.025073 
-1.002657 -0.000986 0.024837 
0.001302 1.014547 -0.003829 
-0.001125 -1.014875 0.003980 
-0.024673 -0.003856 0.982623 
0.024568 0.003997 -0.982763 
1.202536 0.000707 -0.016615 
-1.202495 -0.000450 0.016628 
0.000922 1.214090 -0.002598 
-0.000849 -1.213883 0.002818 
-0.016480 -0.002602 1.183645 
0.016566 0.002699 -1.183557 
0.983780 0.198088 -0.025216 
0.927428 0.388090 -0.024550 
0.835741 0.563536 -0.022752 
0.711806 0.717345 -0.020448 
0.560101 0.843871 -0.016606 
0.386309 0.937882 -0.012841 
0.197546 0.995563 -0.008578 
-0.195007 0.994226 0.000650 
-0.383940 0.935932 0.005585 
-0.557360 0.841626 0.010627 
-0.709455 0.714905 0.015011 
-0.834352 0.561032 0.018289 
-0.926190 0.385736 0.021622 
-0.983246 0.196146 0.023589 
-0.983794 -0.197885 0.025007 
-0.927102 -0.387894 0.024345 
-0.835105 -0.563250 0.022586 
-0.711208 -0.717176 0.020270 
-0.559788 -0.843882 0.016823 
-0.386157 -0.937910 0.013185 
-0.197529 -0.995471 0.008519 
0.195361 -0.994631 -0.000664 
0.384002 -0.936438 -0.005518 
0.557470 -0.841814 -0.010891 
0.709410 -0.714943 -0.014948 
0.834314 -0.561096 -0.018312 
0.926094 -0.385686 -0.021674 
0.983259 -0.196067 -0.023653 
-0.024325 -0.199891 0.965576 
-0.023236 -0.388851 0.911888 
-0.020970 -0.563891 0.823449 
-0.018150 -0.717781 0.703016 
-0.014760 -0.844763 0.554202 
-0.010288 -0.938706 0.383847 
-0.005731 -0.996359 0.197906 
0.003716 -0.993449 -0.190172 
0.008387 -0.933283 -0.375750 
0.012878 -0.837269 -0.545849 
0.016611 -0.709475 -0.694432 
0.019689 -0.555276 -0.815945 
0.022313 -0.380664 -0.906237 
0.023782 -0.191923 -0.962610 
0.024293 0.199826 -0.965632 
0.022974 0.388824 -0.912341 
0.021153 0.563948 -0.823510 
0.018258 0.717730 -0.702808 
0.014716 0.844644 -0.554069 
0.010459 0.938676 -0.383694 
0.005948 0.996340 -0.197825 
-0.003510 0.993462 0.190246 
-0.008482 0.933421 0.375418 
-0.012886 0.837199 0.545930 
-0.016746 0.709579 0.694548 
-0.019868 0.555345 0.815799 
-0.022390 0.380800 0.906520 
-0.023943 0.192066 0.962793 
0.973655 0.000243 0.167858 
0.907635 -0.000610 0.351682 
0.807923 -0.001185 0.521328 
0.679886 -0.001803 0.670523 
0.527200 -0.002720 0.795082 
0.354996 -0.003169 0.891161 
0.169154 -0.003495 0.954959 
-0.219452 -0.003842 0.973272 
-0.407850 -0.004210 0.926347 
-0.581402 -0.003682 0.842440 
-0.733220 -0.003437 0.723258 
-0.856002 -0.003224 0.575649 
-0.943219 -0.002248 0.404679 
-0.992819 -0.001683 0.218396 
-0.973622 -0.000192 -0.168050 
-0.907837 0.000594 -0.351908 
-0.808369 0.001113 -0.521431 
-0.680191 0.001793 -0.670653 
-0.527411 0.002512 -0.794702 
-0.354982 0.003097 -0.891110 
-0.169215 0.003563 -0.954990 
0.219242 0.004070 -0.973270 
0.407744 0.004207 -0.926263 
0.581140 0.003829 -0.842306 
0.733031 0.003510 -0.723276 
0.856026 0.003186 -0.575605 
0.943242 0.002420 -0.404816 
0.992581 0.001799 -0.218448 
1.188076 0.189673 -0.016670 
1.144761 0.374188 -0.016592 
1.073667 0.549657 -0.015793 
0.975654 0.712113 -0.015085 
0.853556 0.857579 -0.013764 
0.710422 0.981561 -0.011422 
0.549252 1.081745 -0.009704 
0.374251 1.155117 -0.007402 
0.189822 1.199460 -0.005432 
-0.188042 1.198557 0.000226 
-0.372508 1.153134 0.003194 
-0.547255 1.079763 0.005054 
-0.708595 0.979213 0.007195 
-0.851446 0.855316 0.009486 
-0.973400 0.710568 0.012171 
-1.072124 0.547997 0.013474 
-1.143485 0.372888 0.014732 
-1.187429 0.188530 0.015815 
-1.187976 -0.189684 0.016746 
-1.144443 -0.374064 0.016555 
-1.073160 -0.549491 0.015827 
-0.975157 -0.711806 0.014969 
-0.853537 -0.857358 0.013344 
-0.710400 -0.981351 0.011368 
-0.549118 -1.081767 0.009591 
-0.374171 -1.155045 0.007443 
-0.189804 -1.199531 0.005454 
0.188248 -1.198655 -0.000173 
0.372688 -1.153548 -0.003108 
0.547530 -1.079954 -0.005132 
0.708762 -0.979368 -0.007352 
0.851565 -0.855213 -0.009597 
0.973441 -0.710501 -0.012407 
1.072121 -0.547936 -0.013550 
1.143461 -0.372816 -0.014745 
1.187449 -0.188394 -0.015889 
0.002154 -1.197553 -0.184677 
0.004381 -1.150918 -0.367361 
0.006912 -1.075496 -0.539800 
0.008753 -0.973759 -0.697899 
0.011176 -0.848597 -0.838711 
0.013344 -0.703059 -0.958036 
0.014289 -0.541659 -1.053726 
0.015285 -0.367496 -1.124102 
0.016141 -0.184769 -1.167867 
0.016302 0.190250 -1.170471 
0.015868 0.373429 -1.129545 
0.015066 0.548733 -1.060676 
0.013896 0.711237 -0.965828 
0.012233 0.856686 -0.846108 
0.009879 0.981169 -0.705912 
0.008064 1.082075 -0.546612 
0.006254 1.156018 -0.372971 
0.003331 1.200097 -0.190389 
-0.002271 1.197337 0.184554 
-0.004343 1.151102 0.367170 
-0.006400 1.075140 0.540390 
-0.008708 0.973668 0.697897 
-0.011177 0.848700 0.838663 
-0.013583 0.703082 0.958355 
-0.014408 0.541712 1.053807 
-0.015411 0.367520 1.124325 
-0.016212 0.184686 1.167935 
-0.016470 -0.190108 1.170504 
-0.015870 -0.373566 1.129255 
-0.015048 -0.548566 1.060626 
-0.013950 -0.711132 0.966092 
-0.012159 -0.856647 0.846305 
-0.009821 -0.981250 0.706070 
-0.008029 -1.082182 0.546713 
-0.006207 -1.156046 0.373111 
-0.003263 -1.200160 0.190660 
-1.196169 -0.001085 0.203582 
-1.158928 -0.001196 0.387841 
-1.091571 -0.001821 0.563093 
-0.994745 -0.001801 0.724236 
-0.871604 -0.002560 0.865494 
-0.727275 -0.002566 0.984307 
-0.564063 -0.002616 1.078008 
-0.387794 -0.002535 1.142228 
-0.203505 -0.002706 1.177605 
0.169353 -0.002334 1.160709 
0.349674 -0.002308 1.110511 
0.520111 -0.002022 1.034348 
0.678117 -0.001620 0.935336 
0.821426 -0.001346 0.815406 
0.945228 -0.001112 0.675281 
1.047410 -0.000472 0.518760 
1.126502 -0.000020 0.349107 
1.179100 0.000301 0.169671 
1.196096 0.001168 -0.203841 
1.159067 0.001529 -0.387757 
1.091701 0.001851 -0.563096 
0.994577 0.001945 -0.724152 
0.871655 0.002496 -0.865377 
0.727323 0.002410 -0.984230 
0.564004 0.002578 -1.077867 
0.387563 0.002629 -1.142281 
0.203510 0.002640 -1.177465 
-0.169501 0.002289 -1.160861 
-0.349920 0.002257 -1.110507 
-0.520099 0.002124 -1.034127 
-0.678223 0.002014 -0.935789 
-0.821570 0.001332 -0.815599 
-0.945513 0.001058 -0.675508 
-1.047791 0.000403 -0.518977 
-1.126669 -0.000016 -0.349193 
-1.179095 -0.000262 -0.169724 
0.837094 -0.401662 -0.432290 
0.430279 -0.802581 -0.446711 
0.416594 -0.378609 -0.839769 
0.909328 -0.301499 -0.356588 
0.305381 -0.905576 -0.335919 
0.705129 -0.338911 -0.663094 
0.575479 -0.637615 -0.547915 
0.876971 -0.486218 -0.127351 
0.199168 -0.622413 -0.756579 
0.638153 -0.170975 -0.782823 
0.894935 -0.156777 -0.480698 
0.218982 -0.860899 -0.477716 
0.968586 -0.138846 -0.288122 
0.825506 -0.295881 -0.535351 
0.697712 -0.652192 -0.356651 
0.471413 -0.874102 -0.208458 
0.637318 -0.767163 -0.186856 
0.547998 -0.481370 -0.710260 
0.821909 -0.142234 -0.604541 
0.570322 -0.763057 -0.356950 
0.993716 -0.123066 -0.136784 
0.780428 -0.624699 -0.167882 
0.159243 -0.960435 -0.275232 
0.947943 -0.309555 -0.180255 
0.755793 -0.476003 -0.501617 
0.273083 -0.963820 -0.153827 
0.573782 -0.301987 -0.787956 
0.350618 -0.711023 -0.625807 
0.848733 -0.474471 -0.307259 
0.522947 -0.180504 -0.854655 
0.163197 -0.763270 -0.628967 
0.215988 -0.481475 -0.847161 
0.199548 -0.316740 -0.922143 
0.371018 -0.559865 -0.753238 
0.659398 -0.486788 -0.611738 
0.126914 -0.997798 -0.123440 
0.466918 -0.607034 -0.665452 
0.353131 -0.214280 -0.917740 
0.228817 -0.129990 -0.962168 
0.524087 0.597229 -0.651988 
0.519999 0.801210 -0.373886 
0.830446 0.382969 -0.476217 
0.424036 0.480283 -0.795793 
0.362581 0.903241 -0.313511 
0.315433 0.321258 -0.905136 
0.194514 0.169025 -0.964387 
0.786796 0.224171 -0.630064 
0.694101 0.551358 -0.526015 
0.512659 0.862589 -0.185824 
0.628055 0.183364 -0.792577 
0.197602 0.894406 -0.447012 
0.191426 0.484379 -0.861563 
0.575271 0.700214 -0.487163 
0.160726 0.971317 -0.262301 
0.415592 0.145513 -0.914192 
0.147247 0.329722 -0.931048 
0.642084 0.718252 -0.353849 
0.135674 0.636499 -0.770238 
0.186087 0.769303 -0.636240 
0.322866 0.638309 -0.725921 
0.868473 0.495897 -0.193680 
0.634247 0.405239 -0.703796 
0.394221 0.783272 -0.530358 
0.778935 0.566901 -0.357158 
0.130452 1.001790 -0.117274 
0.296596 0.962863 -0.150124 
0.717765 0.703271 -0.168326 
0.962918 0.151703 -0.308973 
0.498771 0.314821 -0.836230 
0.872825 0.420209 -0.338423 
0.898991 0.176913 -0.471534 
0.951411 0.299134 -0.200707 
0.914554 0.291615 -0.363695 
0.992241 0.131958 -0.155959 
0.749254 0.395635 -0.589694 
0.437854 0.456117 0.727112 
0.443918 0.810070 0.363143 
0.817786 0.412217 0.342720 
0.307338 0.309777 0.858437 
0.299052 0.914175 0.282053 
0.896823 0.339549 0.227345 
0.955255 0.169635 0.181982 
0.535357 0.632221 0.517002 
0.087287 0.478819 0.849034 
0.727828 0.164378 0.601141 
0.415014 0.156479 0.847780 
0.427312 0.894589 0.167258 
0.861009 0.476894 0.142216 
0.235596 0.137905 0.925325 
0.253444 0.969112 0.131332 
0.935797 0.325372 0.097185 
0.585602 0.156408 0.736292 
0.489282 0.287700 0.770504 
0.299316 0.627501 0.684837 
0.774966 0.627807 0.091274 
0.666907 0.730744 0.148234 
0.567908 0.492227 0.607843 
0.177840 0.754952 0.610432 
0.751071 0.580837 0.272190 
0.619202 0.688223 0.342160 
0.374846 0.720496 0.551687 
0.548713 0.811129 0.203153 
0.109806 0.999379 0.116966 
0.087371 0.119897 0.962904 
0.446564 0.592986 0.627128 
0.131977 0.612197 0.755413 
0.685889 0.506064 0.468652 
0.618524 0.347115 0.646721 
0.133752 0.306202 0.913016 
0.161136 0.959556 0.258577 
0.763013 0.318165 0.498658 
0.817809 0.139143 0.489991 
0.206351 0.870747 0.438521 
0.870295 0.233170 0.367972 
0.234105 0.473609 0.814448 
0.502780 -0.795914 0.327900 
0.304873 -0.375697 0.842444 
0.318563 -0.884644 0.351045 
0.126932 -0.470836 0.855974 
0.485582 -0.160473 0.809728 
0.422814 -0.895596 0.178822 
0.587705 -0.549336 0.552093 
0.240704 -0.177888 0.920934 
0.223632 -0.970610 0.176263 
0.907964 -0.376634 0.139283 
0.750287 -0.402456 0.468984 
0.734970 -0.665764 0.123301 
0.849192 -0.189718 0.427274 
0.946006 -0.182580 0.207319 
0.481118 -0.324128 0.769109 
0.552676 -0.681435 0.451233 
0.607570 -0.782862 0.148336 
0.698318 -0.642519 0.283859 
[...]
POINT_DATA 1108
SCALARS u float 1
LOOKUP_TABLE default
0.025234
0.024998
0.015099
0.015439
0.030424
0.030277
0.016823
0.016821
0.014357
0.014192
0.023363
0.023497
0.025570
0.025387
0.024481
0.023346
0.021215
0.019342
0.017262
0.013457
0.013343
0.014808
0.017077
0.019303
0.021958
0.023740
0.025342
0.025104
0.024131
0.023001
0.021327
0.019564
0.017152
0.013864
0.013780
0.015140
0.017033
0.019338
0.021993
0.023802
0.029087
0.026866
0.023944
0.021450
0.019911
0.018084
0.016832
0.014085
0.014382
0.017146
0.021028
0.025076
0.028517
0.030099
0.029021
0.026432
0.024104
0.021557
0.019808
0.018148
0.016876
0.014017
0.014689
0.017082
0.021078
0.025306
0.028394
0.030102
0.028152
0.035005
0.041573
0.045636
0.046220
0.042978
0.036768
0.025781
0.025636
0.028305
0.030896
0.031865
0.029375
0.026283
0.027974
0.034710
0.041236
0.045350
0.046380
0.043021
0.036710
0.025620
0.025523
0.028034
0.030754
0.031852
0.029507
0.026229
0.017024
0.017287
0.017117
0.017227
0.017223
0.016481
0.016470
0.016074
0.015380
0.013337
0.012404
0.011960
0.011523
0.012024
0.013494
0.014155
0.015041
0.015988
0.017084
0.017166
0.016977
0.016871
0.016767
0.016301
0.016385
0.016013
0.015450
0.013440
0.012804
0.012220
0.011781
0.012084
0.013690
0.014213
0.015041
0.016058
0.012879
0.011149
0.010593
0.011859
0.014875
0.018620
0.021300
0.023224
0.023887
0.022133
0.019900
0.017758
0.015899
0.014901
0.014318
0.015295
0.016165
0.015471
0.012722
0.011354
0.009772
0.011806
0.014909
0.018574
0.021313
0.023139
0.023896
0.022220
0.020093
0.017731
0.015826
0.014789
0.014344
0.015378
0.016191
0.015566
0.019300
0.024556
0.028957
0.030539
0.028756
0.025875
0.021349
0.017188
0.017735
0.030724
0.037397
0.042758
0.044755
0.042818
0.039496
0.033953
0.026258
0.019063
0.019477
0.024617
0.029061
0.030364
0.028722
0.025861
0.021233
0.016978
0.017790
0.030510
0.037258
0.042951
0.044348
0.042578
0.039137
0.033542
0.026094
0.019015
0.025723
0.016273
0.022516
0.025798
0.014271
0.026873
0.020682
0.020741
0.019930
0.027695
0.029234
0.015171
0.026484
0.028084
0.020886
0.015244
0.017471
0.022573
0.030476
0.018024
0.024518
0.019456
0.013790
0.023363
0.025176
0.013524
0.025416
0.017563
0.023175
0.025480
0.017517
0.022163
0.024310
0.019797
0.024312
0.013859
0.019798
0.023780
0.025062
0.029363
0.026549
0.031956
0.027408
0.023404
0.025633
0.025895
0.032623
0.031013
0.023508
0.030313
0.021954
0.024302
0.029299
0.019790
0.026452
0.025558
0.027949
0.023069
0.022798
0.025641
0.027010
0.031520
0.026291
0.029812
0.017728
0.020122
0.025480
0.028560
0.028728
0.029679
0.031796
0.027032
0.030123
0.026033
0.032341
0.039524
0.022258
0.032565
0.040160
0.017271
0.029540
0.029218
0.031264
0.030009
0.043592
0.044350
0.018627
0.026281
0.039530
0.016527
0.026603
0.046522
0.044075
0.030966
0.023844
0.022763
0.037671
0.023839
0.027309
0.026486
0.027277
0.020822
0.014808
0.034220
0.033952
0.027655
0.034422
0.042326
0.034652
0.015208
0.039218
0.040548
0.018564
0.035227
0.034733
0.018334
0.035250
0.016102
0.028365
0.043692
0.014541
0.031267
0.037526
0.014422
0.024126
0.034171
0.018942
0.036513
0.028579
0.039827
0.023918
0.016797
0.022731
0.033194
0.031793
0.019835
0.016822
0.020556
0.021537
0.026780
0.042234
0.017618
0.032726
0.028547
0.026357
0.038504
0.024448
0.023984
0.029211
0.044186
0.040703
0.030053
0.014833
0.029565
0.026725
0.031585
0.027771
0.023680
0.025599
0.025774
0.032450
0.031193
0.023760
0.030709
0.021963
0.024455
0.028851
0.019601
0.026562
0.025550
0.027926
0.022944
0.022772
0.025675
0.026498
0.031673
0.026347
0.029621
0.017720
0.020244
0.025262
0.028322
0.028723
0.029735
0.031657
0.026672
0.029917
0.025947
0.032546
0.038794
0.022008
0.031984
0.040205
0.017428
0.029322
0.029062
0.031351
0.029881
0.043549
0.044299
0.018725
0.026041
0.039375
0.016439
0.026373
0.046030
0.043978
0.030526
0.023479
0.022847
0.037502
0.023230
0.027173
0.026443
0.027171
0.020921
0.014969
0.034246
0.033206
0.027601
0.034206
0.041949
0.034763
0.015479
0.038856
0.040125
0.018680
0.035178
0.034716
0.018188
0.035168
0.016048
0.028409
0.043946
0.014362
0.031166
0.037520
0.014227
0.024086
0.033950
0.018898
0.036324
0.028405
0.039645
0.023988
0.016507
0.022592
0.032984
0.031601
0.019718
0.016861
0.020588
0.021561
0.026721
0.042104
0.017644
0.032649
0.028327
0.026033
0.038325
0.024214
0.023931
0.029035
0.044091
0.040791
0.029777
0.014645
0.025733
0.016268
0.022682
0.025915
0.014341
0.026881
0.020661
0.020779
0.019962
0.027829
0.029288
0.014702
0.026320
0.028073
0.020815
0.015023
0.016999
0.022616
0.030510
0.017897
0.024413
0.019375
0.013795
0.023410
0.025164
0.013315
0.025551
0.017795
0.023134
0.025661
0.017623
0.022291
0.024408
0.019984
0.024290
0.013688
0.019985
0.023878
0.025126
0.018710
0.028464
0.030023
0.021360
0.011068
0.021104
0.011808
0.031861
0.016978
0.013242
0.028762
0.038775
0.015692
0.020949
0.035671
0.012716
0.042437
0.019861
0.012731
0.019169
0.014703
0.010589
0.027713
0.013749
0.025035
0.024219
0.016697
0.011749
0.020874
0.014074
0.031717
0.034223
0.023085
0.022446
0.029426
0.012541
0.026401
0.040975
0.013633
0.039001
0.025430
0.043203
0.015810
0.033521
0.012917
0.027832
0.011495
0.014147
0.010928
0.018493
0.010713
0.025878
0.017934
0.014252
0.017201
0.016924
0.032771
0.036940
0.012037
0.039000
0.023952
0.034946
0.027661
0.027954
0.020549
0.021325
0.025575
0.019722
0.023641
0.017582
0.017432
0.019073
0.017587
0.031081
0.020739
0.019129
0.018736
0.031105
0.025037
0.016524
0.026596
0.024888
0.020489
0.021179
0.018640
0.027190
0.017045
0.028972
0.019359
0.020653
0.017441
0.021758
0.024840
0.023683
0.028964
0.030410
0.027033
0.029274
0.024522
0.016809
0.030603
0.020070
0.027785
0.016767
0.029071
0.022485
0.031396
0.022064
0.028993
0.023739
0.020681
0.022626
0.024916
0.027059
0.030199
0.018123
0.015670
0.025132
0.031549
0.022735
0.019970
0.019783
0.017614
0.016806
0.037602
0.024287
0.012883
0.037559
0.026615
0.034490
0.022618
0.011923
0.033588
0.021561
0.013065
0.017275
0.023650
0.017493
0.017168
0.025928
0.014181
0.012936
0.035855
0.042109
0.044202
0.037240
0.018087
0.028600
0.011559
0.031428
0.039738
0.028900
0.018085
0.029087
0.017258
0.022955
0.020375
0.026199
0.028828
0.028395
0.037443
0.015604
0.020271
0.015120
0.015351
0.016416
0.014941
0.030571
0.021117
0.033494
0.022349
0.041210
0.044120
0.041303
0.032575
0.030748
0.035578
0.017717
0.028132
0.030630
0.024271
0.013129
0.042006
0.013842
0.010843
0.013958
0.023696
0.017908
0.013443
0.016248
0.023264
0.015961
0.020858
0.017009
0.020509
0.013132
0.017649
0.012678
0.015917
0.015142
0.016831
0.010625
0.013896
0.026680
0.021512
0.022646
0.028602
0.017480
0.016963
0.013374
0.020697
0.017368
0.025332
0.019210
0.017337
0.015151
0.011566
0.012741
0.015221
0.017910
0.020769
0.017644
0.023810
0.017095
0.014055
0.014269
0.012590
0.014955
0.011647
0.014123
0.014225
0.020063
0.014891
0.020921
0.026000
0.028696
0.019127
0.026184
0.019359
0.023512
0.017294
0.019883
0.020810
0.015875
0.012744
0.026630
0.012574
0.012929
0.021339
0.033357
0.036793
0.023333
0.011868
0.022541
0.012214
0.017925
0.014083
0.020786
0.041103
0.043017
0.026539
0.013840
0.036473
0.025319
0.044086
0.015711
0.020677
0.017161
0.014071
0.011182
0.028515
0.040924
0.028105
0.018297
0.013349
0.012452
0.021466
0.036342
0.030643
0.035486
0.039280
0.029087
0.027532
0.033770
0.015970
0.028448
0.015769
0.041688
0.041164
0.031216
0.044213
0.020170
0.035455
0.017042
0.029552
0.012178
0.015642
0.015482
0.020892
0.013126
0.022355
0.028512
0.013948
0.017672
0.035535
0.022130
0.035866
0.014842
0.031070
0.027808
0.023648
0.017815
0.013361
0.016096
0.023226
0.015895
0.020867
0.013068
0.016963
0.020604
0.013205
0.012933
0.017669
0.012251
0.015145
0.016953
0.010543
0.014006
0.026670
0.021359
0.022467
0.028566
0.017450
0.016962
0.011625
0.020679
0.017214
0.025404
0.019201
0.017352
0.015636
0.014783
0.018273
0.020851
0.017418
0.023802
0.016885
0.014108
0.014605
0.012337
0.016641
0.011531
0.014353
0.014038
0.020075
0.014757
0.020996
0.025898
0.028597
0.018918
0.026153
0.019231
0.023526
0.017361
0.019873
0.015583
0.020918
0.014638
0.026527
0.011620
0.013190
0.012993
0.018673
0.028463
0.032438
0.021492
0.011132
0.021212
0.011951
0.017041
0.013437
0.038992
0.015705
0.040366
0.020900
0.035882
0.012708
0.042078
0.019837
0.012843
0.019310
0.014763
0.010720
0.027959
0.013771
0.038486
0.024188
0.016726
0.011900
0.020972
0.014198
0.031312
0.025544
0.034454
0.035359
0.023318
0.022450
0.029719
0.012508
0.026646
0.041171
0.013590
0.037411
0.025445
0.043254
0.015719
0.033753
0.012889
0.028099
0.011459
0.014295
0.011095
0.018557
0.010800
0.026067
0.017851
0.014383
0.017294
0.033222
0.016969
0.032847
0.012130
0.028544
0.026647
0.024988
0.029476
0.028319
0.021390
0.018367
0.019708
0.017169
0.024459
0.017352
0.018184
0.020145
0.024614
0.030529
0.031194
0.020820
0.025515
0.019919
0.030779
0.021169
0.022928
0.018471
0.016761
0.019367
0.018931
0.028219
0.028830
0.018722
0.016830
0.017531
0.016986
0.029730
0.028478
0.031470
0.030191
0.028250
0.023541
0.024647
0.019781
0.028614
0.025134
0.030771
0.019982
0.031169
0.024340
0.026841
0.022749
0.021500
0.020358
0.017000
0.021321
0.018175
0.027028
0.027469
0.019240
0.015746
0.028925
0.026473
0.025008
0.016720
0.020376
0.024970
0.018928
0.022021
0.022568
0.035177
0.024807
0.027089
0.030974
0.030298
0.011232
0.005830
0.022483
0.021008
0.025500
0.022595
0.037092
0.021527
0.023180
0.024905
0.037738
0.028724
0.005202
0.014545
0.018018
0.017321
0.021798
0.035004
0.029746
0.033323
0.028946
0.030985
0.025293
0.037512
0.036122
0.032599
0.031113
0.020205
0.038275
0.037556
0.014547
0.029675
0.013218
0.028746
0.043089
0.023791
0.030583
0.025100
0.041172
0.017432
0.017594
0.037187
0.018952
0.022258
0.034432
0.041481
0.028739
0.027922
0.025441
0.027598
0.020155
0.028116
0.032933
0.028133
0.028387
0.024533
0.026419
0.027153
0.028389
0.035795
0.042389
0.021869
0.029798
0.035254
0.035866
0.035936
0.040031
0.024274
0.029161
0.033005
0.039775
0.035698
0.034044
0.031312
0.036359
0.034321
0.042157
0.037623
0.030433
0.015909
0.017512
0.013812
0.022630
0.016205
0.015751
0.027428
0.030925
0.026133
0.026985
0.028849
0.029675
0.014187
0.010876
0.028146
0.008479
