# vtk DataFile Version 2.0
Unstructured Grid Example
ASCII
DATASET UNSTRUCTURED_GRID
POINTS 1108 float
0.982563 -0.022599 0.003709 
-0.982836 0.022281 -0.003487 
-0.022506 1.023371 -0.006158 
0.022496 -1.023528 0.006219 
0.003685 -0.005995 0.993130 
-0.003764 0.006234 -0.993957 
1.183631 -0.014931 0.002460 
-1.183647 0.015083 -0.002310 
-0.014908 1.222091 -0.003842 
0.015221 -1.222294 0.004056 
0.002381 -0.003995 1.193557 
-0.002345 0.003870 -1.193990 
0.955802 0.174135 0.002290 
0.893651 0.363243 0.001110 
0.799121 0.538856 -0.000057 
0.675700 0.694652 -0.001633 
0.526819 0.826254 -0.003052 
0.356753 0.927891 -0.004232 
0.171584 0.994503 -0.005214 
-0.217247 1.011391 -0.006669 
-0.404787 0.959757 -0.007061 
-0.575709 0.869130 -0.007040 
-0.723477 0.742772 -0.006766 
-0.841967 0.587658 -0.006353 
-0.925661 0.410763 -0.005635 
-0.972932 0.219725 -0.004671 
-0.956176 -0.174319 -0.002164 
-0.893894 -0.363364 -0.001213 
-0.799747 -0.539062 0.000193 
-0.676271 -0.694593 0.001728 
-0.526973 -0.825936 0.003016 
-0.356656 -0.927460 0.004173 
-0.171382 -0.994575 0.005353 
0.217444 -1.011523 0.006832 
0.404934 -0.959620 0.007165 
0.575863 -0.869189 0.007208 
0.723812 -0.742788 0.006886 
0.841982 -0.587688 0.006425 
0.925911 -0.411018 0.005799 
0.973030 -0.220022 0.004887 
0.008172 -0.203925 0.976533 
0.012106 -0.394766 0.923184 
0.015734 -0.571653 0.834431 
0.018583 -0.726923 0.712871 
0.020799 -0.854789 0.562796 
0.022137 -0.949079 0.390424 
0.023056 -1.005555 0.201988 
0.021322 -1.000951 -0.189386 
0.019368 -0.939600 -0.376905 
0.016504 -0.842206 -0.549276 
0.013052 -0.713622 -0.699856 
0.009375 -0.558223 -0.823177 
0.005041 -0.381948 -0.915277 
0.000502 -0.191282 -0.972870 
-0.007896 0.203625 -0.977067 
-0.011964 0.394664 -0.923895 
-0.015631 0.571473 -0.834377 
-0.018374 0.726696 -0.712653 
-0.020555 0.854593 -0.562672 
-0.021935 0.948887 -0.390296 
-0.022844 1.005545 -0.201911 
-0.021178 1.000984 0.189648 
-0.019256 0.939717 0.377301 
-0.016645 0.842748 0.549281 
-0.013137 0.713881 0.699927 
-0.009686 0.558337 0.823263 
-0.005281 0.382211 0.914937 
-0.000623 0.191661 0.972431 
0.965409 -0.023160 0.197191 
0.911173 -0.023105 0.383109 
0.821416 -0.021805 0.554550 
0.700071 -0.020083 0.705117 
0.551340 -0.017662 0.828486 
0.381012 -0.013977 0.919715 
0.196010 -0.009830 0.975327 
-0.188882 -0.001226 0.972436 
-0.373105 0.002804 0.914255 
-0.543513 0.007738 0.821446 
-0.692885 0.011378 0.697327 
-0.815172 0.015135 0.546649 
-0.906152 0.018160 0.375411 
-0.962743 0.020545 0.189805 
-0.965467 0.022945 -0.196956 
-0.911092 0.023062 -0.382872 
-0.821264 0.021613 -0.554324 
-0.699906 0.019980 -0.705011 
-0.550959 0.017310 -0.828723 
-0.381134 0.013529 -0.920206 
-0.196340 0.009841 -0.976149 
0.188552 0.001749 -0.972781 
0.373456 -0.002851 -0.914625 
0.543564 -0.007553 -0.821674 
0.692613 -0.011464 -0.697264 
0.814785 -0.015204 -0.546552 
0.906042 -0.018504 -0.375264 
0.962743 -0.020985 -0.189452 
1.161563 0.172493 0.001802 
1.112672 0.354477 0.000995 
1.038470 0.527325 0.000212 
0.941112 0.688243 -0.000538 
0.821582 0.833899 -0.000929 
0.681846 0.960907 -0.001891 
0.525007 1.066024 -0.002465 
0.354246 1.146445 -0.002995 
0.172817 1.199201 -0.003613 
-0.203868 1.214465 -0.004196 
-0.388741 1.175487 -0.004729 
-0.565106 1.105676 -0.004702 
-0.725952 1.005471 -0.004985 
-0.866883 0.879347 -0.004482 
-0.985416 0.732272 -0.004167 
-1.077847 0.567164 -0.003982 
-1.141798 0.389171 -0.003552 
-1.176916 0.203589 -0.003107 
-1.161990 -0.172725 -0.001750 
-1.112989 -0.354945 -0.000758 
-1.038812 -0.527459 -0.000111 
-0.941548 -0.688758 0.000569 
-0.821339 -0.834386 0.000996 
-0.681608 -0.960977 0.002030 
-0.524864 -1.065751 0.002502 
-0.354195 -1.146210 0.003109 
-0.172806 -1.199301 0.003486 
0.203908 -1.214428 0.004276 
0.388959 -1.175449 0.004711 
0.565186 -1.105708 0.004821 
0.726058 -1.005523 0.005028 
0.867057 -0.879538 0.004571 
0.985653 -0.732453 0.004233 
1.078016 -0.567380 0.004055 
1.142030 -0.389305 0.003618 
1.177011 -0.203569 0.003179 
0.014456 -1.204787 -0.185053 
0.013481 -1.157087 -0.368533 
0.012225 -1.080916 -0.542122 
0.010964 -0.978522 -0.701781 
0.008772 -0.852815 -0.843342 
0.006433 -0.706951 -0.964270 
0.004446 -0.544210 -1.061510 
0.002235 -0.369003 -1.132977 
0.000228 -0.185300 -1.177375 
-0.005027 0.193518 -1.181736 
-0.006976 0.377765 -1.140699 
-0.008911 0.554798 -1.071827 
-0.010634 0.718378 -0.976411 
-0.011990 0.865187 -0.855708 
-0.013834 0.990796 -0.713914 
-0.014293 1.092247 -0.553256 
-0.014810 1.165396 -0.377814 
-0.015149 1.209222 -0.193339 
-0.014471 1.204733 0.184944 
-0.013506 1.157193 0.368688 
-0.012174 1.081732 0.541805 
-0.011216 0.979101 0.701839 
-0.008934 0.853090 0.843554 
-0.006047 0.706991 0.964168 
-0.004497 0.544223 1.061509 
-0.002342 0.368951 1.132720 
-0.000241 0.185094 1.176966 
0.004824 -0.192762 1.181045 
0.006967 -0.377980 1.140272 
0.009095 -0.554588 1.071791 
0.010716 -0.718418 0.976391 
0.011968 -0.865320 0.855896 
0.013944 -0.990953 0.714025 
0.014395 -1.092463 0.553363 
0.014922 -1.165516 0.377825 
0.015229 -1.209256 0.193396 
-1.167990 0.014054 0.183237 
-1.123912 0.013121 0.364592 
-1.052754 0.011422 0.536955 
-0.955665 0.010080 0.696643 
-0.835431 0.007553 0.838936 
-0.694668 0.005350 0.960243 
-0.535513 0.003281 1.058814 
-0.364579 0.000876 1.132347 
-0.183515 -0.001417 1.177539 
0.188413 -0.006331 1.179968 
0.370108 -0.008677 1.136783 
0.542506 -0.010439 1.065472 
0.701543 -0.011577 0.967529 
0.842783 -0.013429 0.845728 
0.962882 -0.014785 0.702998 
1.058521 -0.014994 0.543336 
1.128471 -0.015410 0.370032 
1.170558 -0.015412 0.188463 
1.167773 -0.014032 -0.183186 
1.123638 -0.013069 -0.364425 
1.052256 -0.011391 -0.536840 
0.955345 -0.009901 -0.696500 
0.835371 -0.007571 -0.838700 
0.694850 -0.005572 -0.960254 
0.535648 -0.003117 -1.059253 
0.364207 -0.000730 -1.132724 
0.183876 0.000897 -1.177833 
-0.188375 0.006118 -1.180615 
-0.370166 0.009117 -1.137618 
-0.542709 0.010372 -1.065699 
-0.701961 0.012115 -0.967432 
-0.842771 0.013313 -0.845584 
-0.962777 0.014606 -0.702878 
-1.058383 0.014816 -0.543219 
-1.128374 0.015261 -0.369952 
-1.170605 0.015318 -0.188409 
0.818582 -0.419723 -0.408837 
0.432011 -0.818660 -0.438383 
0.394377 -0.386517 -0.829622 
0.888431 -0.321220 -0.330612 
0.314858 -0.920984 -0.329912 
0.679433 -0.352295 -0.641929 
0.566709 -0.652555 -0.534435 
0.876331 -0.510175 -0.102679 
0.189996 -0.629030 -0.756987 
0.605624 -0.182784 -0.761874 
0.862829 -0.175181 -0.453030 
0.223053 -0.872101 -0.475537 
0.941966 -0.160155 -0.259734 
0.799137 -0.312275 -0.510572 
0.694836 -0.672408 -0.338493 
0.483737 -0.895828 -0.196568 
0.646161 -0.791547 -0.169265 
0.529681 -0.492522 -0.696144 
0.786908 -0.158304 -0.577819 
0.572553 -0.782729 -0.343754 
0.973597 -0.145784 -0.108338 
0.783604 -0.648855 -0.146332 
0.172997 -0.972432 -0.272505 
0.935335 -0.332198 -0.153354 
0.739041 -0.492488 -0.480938 
0.290037 -0.981556 -0.146621 
0.546690 -0.312267 -0.770661 
0.345062 -0.722541 -0.620165 
0.838589 -0.495156 -0.284106 
0.492247 -0.189631 -0.838035 
0.160835 -0.770894 -0.629574 
0.200198 -0.486483 -0.847003 
0.178056 -0.320355 -0.922752 
0.357422 -0.569142 -0.746041 
0.641617 -0.500260 -0.594343 
0.146314 -1.010816 -0.119567 
0.455468 -0.618721 -0.655032 
0.326018 -0.219831 -0.909926 
0.201217 -0.133257 -0.961076 
0.478029 0.581683 -0.634394 
0.477663 0.784230 -0.359428 
0.780573 0.359485 -0.447783 
0.381091 0.470358 -0.782589 
0.325704 0.893715 -0.305281 
0.276787 0.316359 -0.898515 
0.161031 0.168171 -0.965558 
0.739478 0.204585 -0.601473 
0.645117 0.529615 -0.502079 
0.475184 0.845733 -0.172676 
0.584521 0.169115 -0.769223 
0.161477 0.894109 -0.446367 
0.153185 0.484351 -0.862317 
0.529204 0.680984 -0.468511 
0.128796 0.972497 -0.261999 
0.377811 0.137767 -0.901518 
0.111717 0.331073 -0.935181 
0.596891 0.696348 -0.334105 
0.097702 0.639260 -0.774034 
0.147656 0.769835 -0.636641 
0.281599 0.632202 -0.719028 
0.824747 0.469559 -0.168059 
0.586325 0.387719 -0.680340 
0.352621 0.772375 -0.520088 
0.730535 0.541710 -0.332219 
0.102644 1.004222 -0.116907 
0.264784 0.956950 -0.144471 
0.676263 0.679333 -0.148085 
0.923376 0.128321 -0.279285 
0.455775 0.303169 -0.818272 
0.825203 0.394769 -0.310865 
0.853024 0.154846 -0.441277 
0.910978 0.273865 -0.172681 
0.868596 0.267231 -0.334298 
0.959578 0.108003 -0.127208 
0.699485 0.374453 -0.562579 
0.445503 0.449448 0.749597 
0.428289 0.800162 0.375819 
0.805417 0.393170 0.366985 
0.324035 0.304729 0.880180 
0.280634 0.909183 0.289948 
0.879227 0.317979 0.252812 
0.941022 0.146694 0.210089 
0.528554 0.621752 0.535258 
0.099243 0.479474 0.860630 
0.738096 0.147834 0.631947 
0.435794 0.147200 0.875448 
0.403297 0.883812 0.177285 
0.834634 0.454057 0.165465 
0.258413 0.132415 0.947514 
0.230442 0.965495 0.136888 
0.910695 0.301792 0.123034 
0.602820 0.143184 0.767789 
0.503861 0.278713 0.797355 
0.301672 0.624652 0.700234 
0.743933 0.605625 0.111448 
0.639048 0.711725 0.165436 
0.568415 0.481458 0.630381 
0.176338 0.755272 0.620875 
0.730897 0.561746 0.292778 
0.602054 0.673064 0.359667 
0.369266 0.714710 0.565912 
0.524526 0.796340 0.216601 
0.088149 1.002719 0.118054 
0.111821 0.116924 0.978392 
0.446503 0.585610 0.645992 
0.137840 0.612865 0.766823 
0.678923 0.491088 0.491004 
0.625294 0.334628 0.673662 
0.151932 0.304590 0.928722 
0.143679 0.960047 0.262779 
0.763010 0.301672 0.525330 
0.824294 0.120075 0.520538 
0.196057 0.869873 0.446078 
0.865401 0.213222 0.396036 
0.245121 0.471938 0.831197 
0.532925 -0.826312 0.352510 
0.338796 -0.393085 0.871158 
0.349507 -0.909872 0.369736 
0.162068 -0.483673 0.875821 
0.514732 -0.177576 0.843581 
0.449155 -0.922870 0.197040 
0.620846 -0.578532 0.585929 
0.271167 -0.189263 0.946235 
0.250562 -0.991079 0.187844 
0.916380 -0.403436 0.168561 
0.776821 -0.430664 0.504043 
0.753565 -0.695698 0.148958 
0.865820 -0.214422 0.461142 
0.949014 -0.207664 0.238184 
0.513884 -0.345154 0.803515 
0.584476 -0.712090 0.480808 
0.630762 -0.813391 0.171592 
0.724091 -0.673371 0.312881 
[...]
POINT_DATA 1108
SCALARS u float 1
LOOKUP_TABLE default
0.028784
0.028341
0.033025
0.033140
0.009835
0.009463
0.022292
0.022367
0.026926
0.027297
0.007947
0.007523
0.032688
0.035957
0.036412
0.033826
0.029379
0.026578
0.027711
0.038368
0.042727
0.043283
0.039822
0.034354
0.028695
0.026275
0.032276
0.035690
0.035761
0.033323
0.029284
0.026601
0.027944
0.038615
0.042706
0.043434
0.039995
0.034399
0.028993
0.026564
0.012764
0.017118
0.022693
0.027771
0.032072
0.034423
0.034536
0.029897
0.025606
0.020670
0.016290
0.012795
0.009998
0.008798
0.012207
0.016932
0.022487
0.027425
0.031743
0.034124
0.034371
0.029767
0.025506
0.021067
0.016432
0.012993
0.010397
0.009052
0.027879
0.026372
0.024033
0.021372
0.018405
0.014680
0.011282
0.010476
0.013865
0.017485
0.020672
0.023963
0.026400
0.027849
0.027651
0.026370
0.023934
0.021341
0.018123
0.014104
0.010950
0.010482
0.013376
0.017238
0.020937
0.024308
0.026752
0.028243
0.028198
0.032952
0.035353
0.034282
0.030675
0.025573
0.020187
0.017621
0.020748
0.033664
0.038916
0.042010
0.040624
0.036149
0.030913
0.024314
0.018699
0.018179
0.027711
0.032439
0.034989
0.033649
0.030663
0.025775
0.020376
0.017621
0.020802
0.033661
0.038981
0.042090
0.040727
0.036412
0.031192
0.024585
0.018851
0.018131
0.024468
0.020910
0.017136
0.013864
0.011055
0.009321
0.008909
0.008778
0.008220
0.008429
0.009860
0.013655
0.017728
0.021744
0.025765
0.028404
0.029162
0.028928
0.024447
0.020990
0.017719
0.014375
0.011197
0.009140
0.008934
0.009058
0.008671
0.008134
0.010040
0.013617
0.017799
0.021897
0.025983
0.028663
0.029320
0.029010
0.022687
0.022631
0.021507
0.020174
0.017905
0.015951
0.014312
0.010923
0.008876
0.008258
0.009794
0.011320
0.012621
0.014872
0.016944
0.018470
0.020046
0.021289
0.022848
0.022858
0.021916
0.020389
0.018083
0.015899
0.013870
0.010829
0.008382
0.007689
0.009842
0.011145
0.013026
0.014800
0.016855
0.018416
0.019997
0.021187
0.023751
0.029517
0.012296
0.024008
0.032610
0.018203
0.024510
0.030576
0.014837
0.016429
0.023014
0.026120
0.025592
0.021235
0.031128
0.039029
0.038635
0.017043
0.020967
0.033303
0.026536
0.034323
0.031739
0.026351
0.023546
0.037548
0.014745
0.021411
0.027398
0.014120
0.019282
0.011018
0.009004
0.015688
0.020139
0.034780
0.019461
0.010665
0.009453
0.024411
0.027158
0.031865
0.020172
0.026441
0.015655
0.011992
0.026808
0.029461
0.027999
0.021186
0.027946
0.018486
0.027533
0.029902
0.015151
0.014945
0.030263
0.022657
0.025409
0.021443
0.036341
0.025086
0.024713
0.033395
0.030085
0.027086
0.033508
0.030794
0.019547
0.034277
0.029727
0.034633
0.032911
0.031432
0.029085
0.020996
0.026077
0.032756
0.015626
0.024495
0.033361
0.031064
0.026825
0.013359
0.024401
0.016294
0.026464
0.035795
0.012206
0.025818
0.034600
0.020465
0.019533
0.019418
0.035158
0.032512
0.025908
0.018705
0.033480
0.030675
0.022897
0.029131
0.028337
0.010076
0.023287
0.015748
0.029996
0.024675
0.011837
0.025261
0.028732
0.026237
0.022080
0.029558
0.015736
0.044894
0.022686
0.043510
0.022332
0.019108
0.045269
0.035756
0.015308
0.041856
0.030038
0.031219
0.039784
0.025827
0.026874
0.024129
0.041038
0.044295
0.040239
0.011759
0.016318
0.036352
0.039101
0.041365
0.034659
0.037974
0.024082
0.041032
0.031429
0.036926
0.033978
0.028570
0.036533
0.029428
0.028725
0.021553
0.018653
0.029302
0.037471
0.024559
0.027160
0.031046
0.020184
0.026489
0.016067
0.012284
0.026631
0.029329
0.027990
0.021343
0.028167
0.018507
0.027184
0.029988
0.015469
0.014928
0.029928
0.022813
0.025640
0.021737
0.035828
0.025082
0.024972
0.033491
0.030276
0.027127
0.032924
0.030322
0.019683
0.033871
0.029133
0.034042
0.032187
0.031089
0.028777
0.020810
0.026122
0.032713
0.015092
0.024166
0.033380
0.030892
0.026608
0.012997
0.024515
0.015791
0.026381
0.035133
0.011921
0.025963
0.034364
0.020585
0.019487
0.019477
0.034690
0.031908
0.025593
0.018813
0.033601
0.030490
0.022831
0.029048
0.028421
0.009642
0.023258
0.015592
0.029616
0.024571
0.011495
0.025084
0.028654
0.026333
0.021987
0.029911
0.015836
0.044533
0.022357
0.043074
0.021727
0.018956
0.044987
0.035379
0.014755
0.041608
0.029768
0.030958
0.039557
0.025640
0.026652
0.023862
0.040647
0.044088
0.039836
0.011222
0.015927
0.035923
0.038684
0.041012
0.034433
0.037496
0.023866
0.040576
0.030884
0.036598
0.033688
0.028281
0.036146
0.029146
0.028341
0.021494
0.018327
0.029037
0.037293
0.023658
0.029918
0.012505
0.023820
0.033073
0.018163
0.024660
0.030396
0.015072
0.016461
0.022715
0.026662
0.025315
0.021092
0.031019
0.038995
0.038035
0.017198
0.020800
0.032928
0.026171
0.034309
0.031666
0.026037
0.023493
0.037470
0.014838
0.021777
0.027341
0.014318
0.019578
0.011304
0.009175
0.016029
0.020200
0.034489
0.019792
0.010830
0.009603
0.037204
0.029116
0.018179
0.021296
0.041636
0.018234
0.039175
0.013134
0.017668
0.037236
0.008634
0.018499
0.031464
0.025298
0.016440
0.033414
0.012595
0.019448
0.042279
0.032161
0.029905
0.043838
0.017075
0.034869
0.016159
0.034327
0.021556
0.041849
0.018080
0.034557
0.023045
0.023834
0.029517
0.034227
0.028261
0.041388
0.025452
0.015107
0.027857
0.017721
0.022303
0.014198
0.024233
0.020217
0.037178
0.019503
0.039216
0.037249
0.040073
0.026363
0.043460
0.030856
0.038818
0.032307
0.018864
0.036164
0.024988
0.015479
0.035471
0.011126
0.010910
0.009836
0.026709
0.019947
0.013102
0.017590
0.032565
0.019152
0.031191
0.011519
0.019814
0.030368
0.009208
0.024163
0.015838
0.013636
0.020393
0.025688
0.016940
0.012830
0.031817
0.022468
0.022547
0.034086
0.022894
0.027364
0.010906
0.023412
0.017916
0.033992
0.023989
0.026889
0.017060
0.015477
0.021562
0.024246
0.018660
0.030759
0.017373
0.019988
0.022047
0.012484
0.020121
0.016617
0.019846
0.016397
0.028383
0.017827
0.030424
0.027897
0.032324
0.019215
0.034278
0.020233
0.027847
0.026257
0.023954
0.016646
0.026566
0.015397
0.028348
0.013633
0.009572
0.011099
0.023854
0.023670
0.017176
0.013671
0.028812
0.011865
0.029231
0.016271
0.009569
0.024539
0.019226
0.030916
0.014476
0.014544
0.034525
0.011759
0.023016
0.014008
0.025791
0.019524
0.014696
0.021640
0.033161
0.011032
0.015225
0.025062
0.011961
0.024084
0.029266
0.009616
0.021262
0.018622
0.026703
0.027390
0.021898
0.029931
0.017592
0.032517
0.011004
0.016272
0.026089
0.012877
0.028725
0.015329
0.032470
0.014527
0.031930
0.021121
0.016698
0.015356
0.026323
0.027987
0.021535
0.025512
0.008204
0.018592
0.030511
0.020128
0.017917
0.018343
0.018145
0.017204
0.012527
0.021324
0.030442
0.008902
0.015868
0.008428
0.016438
0.009591
0.018982
0.012722
0.029569
0.018426
0.034014
0.008752
0.025463
0.019139
0.038205
0.013490
0.010552
0.012590
0.016222
0.008156
0.018592
0.037183
0.016383
0.010646
0.017744
0.008521
0.017235
0.026406
0.025614
0.035408
0.018860
0.027708
0.021417
0.016024
0.016701
0.008623
0.009888
0.031923
0.023563
0.033001
0.013995
0.036362
0.009568
0.023028
0.007504
0.018410
0.012510
0.015772
0.010018
0.014923
0.011805
0.016730
0.019476
0.008591
0.022318
0.012265
0.032611
0.015069
0.029841
0.029276
0.028309
0.021977
0.014332
0.031052
0.017329
0.029172
0.016291
0.029064
0.017850
0.014981
0.021754
0.018282
0.014214
0.013764
0.022047
0.011014
0.014603
0.024831
0.031813
0.034017
0.023574
0.016202
0.024143
0.012626
0.025536
0.032929
0.017841
0.019167
0.024608
0.018220
0.011068
0.009417
0.021358
0.018030
0.021791
0.024648
0.020152
0.030030
0.012144
0.018023
0.017046
0.014100
0.016382
0.011224
0.025657
0.016249
0.028019
0.016185
0.029281
0.032017
0.033075
0.020547
0.023761
0.027783
0.021570
0.025278
0.026074
0.019578
0.011208
0.028793
0.009200
0.007599
0.012586
0.021181
0.027897
0.008925
0.015976
0.008429
0.016561
0.031525
0.009446
0.019091
0.030882
0.012501
0.029705
0.018093
0.008708
0.025660
0.018357
0.038568
0.013595
0.010585
0.012510
0.016343
0.008131
0.018836
0.024446
0.016284
0.010446
0.017881
0.008352
0.017306
0.026478
0.018457
0.026628
0.021087
0.015729
0.016749
0.008536
0.009918
0.032566
0.022624
0.032880
0.013832
0.036274
0.009376
0.023035
0.007499
0.018549
0.012602
0.015924
0.009955
0.015020
0.011671
0.016682
0.019480
0.008162
0.011935
0.022072
0.033897
0.015170
0.024668
0.037658
0.035803
0.037577
0.029491
0.016670
0.021543
0.041983
0.018443
0.039437
0.017768
0.037372
0.018474
0.031786
0.016543
0.025598
0.016610
0.033781
0.012814
0.019040
0.042585
0.032527
0.030162
0.044069
0.017180
0.035192
0.011846
0.034688
0.021815
0.042063
0.018119
0.034715
0.023311
0.014130
0.009367
0.022894
0.029769
0.034622
0.028289
0.041734
0.025750
0.015278
0.028144
0.016933
0.021882
0.014247
0.024516
0.020385
0.037540
0.019742
0.039610
0.037640
0.040286
0.026653
0.043763
0.031143
0.039152
0.032447
0.018898
0.024910
0.036470
0.011028
0.035764
0.008904
0.007941
0.016005
0.026524
0.030513
0.017968
0.012102
0.019159
0.011519
0.031113
0.024236
0.009042
0.028180
0.028298
0.022016
0.025805
0.022563
0.017460
0.033681
0.024871
0.013862
0.016278
0.020970
0.012647
0.017871
0.013428
0.027891
0.021077
0.022670
0.010387
0.019904
0.010313
0.030295
0.028622
0.026269
0.023768
0.024252
0.015904
0.017872
0.028376
0.019343
0.031707
0.028414
0.032033
0.022219
0.022059
0.018969
0.018286
0.015113
0.016222
0.016276
0.018144
0.012186
0.019743
0.018741
0.008645
0.024116
0.021372
0.023274
0.033438
0.020179
0.034163
0.026036
0.031903
0.009776
0.021906
0.030304
0.018129
0.022727
0.009038
0.011680
0.031001
0.012851
0.008268
0.023380
0.030546
0.023674
0.024011
0.028631
0.029915
0.022107
0.026994
0.017803
0.015187
0.040987
0.034123
0.033003
0.030463
0.030346
0.032530
0.030086
0.031135
0.031461
0.026779
0.011529
0.017157
0.024332
0.039137
0.045768
0.027077
0.032320
0.039464
0.032039
0.030287
0.025081
0.019445
0.018676
0.036624
0.027161
0.019639
0.029719
0.030070
0.012133
0.031532
0.030916
0.022794
0.028403
0.009023
0.012667
0.022684
0.017582
0.037967
0.032736
0.028495
0.032508
0.013652
0.013029
0.010170
0.023080
0.035799
0.010761
0.016568
0.029372
0.032998
0.031927
0.029692
0.011127
0.018895
0.026711
0.014457
0.011968
0.026658
0.027806
0.016548
0.021533
0.026889
0.030690
0.028420
0.033682
0.035175
0.043696
0.037919
0.040128
0.024395
0.034401
0.041944
0.029222
0.018997
0.023329
0.016066
0.010728
0.012294
0.035256
0.017126
0.029458
0.011624
