# vtk DataFile Version 2.0
Unstructured Grid Example
ASCII
DATASET UNSTRUCTURED_GRID
POINTS 1108 float
1.016660 0.021592 -0.003543 
-1.016399 -0.021288 0.003332 
0.021503 0.977670 0.005884 
-0.021493 -0.977521 -0.005942 
-0.003521 0.005728 1.006564 
0.003596 -0.005956 -1.005774 
1.215639 0.014265 -0.002350 
-1.215625 -0.014411 0.002207 
0.014244 1.178894 0.003671 
-0.014543 -1.178700 -0.003875 
-0.002275 0.003817 1.206156 
0.002241 -0.003697 -1.205742 
1.004655 0.215112 -0.002188 
0.952761 0.401258 -0.001061 
0.862377 0.571540 0.000054 
0.737114 0.719006 0.001561 
0.583040 0.836452 0.002916 
0.407458 0.920046 0.004043 
0.217549 0.967679 0.004982 
-0.173921 0.951544 0.006372 
-0.361565 0.889601 0.006746 
-0.536329 0.795488 0.006726 
-0.691466 0.673030 0.006464 
-0.821440 0.524912 0.006070 
-0.922177 0.355855 0.005384 
-0.988289 0.171553 0.004462 
-1.004298 -0.214936 0.002067 
-0.952528 -0.401142 0.001159 
-0.861778 -0.571343 -0.000184 
-0.736568 -0.719063 -0.001651 
-0.582893 -0.836757 -0.002881 
-0.407551 -0.920459 -0.003987 
-0.217742 -0.967610 -0.005114 
0.173733 -0.951418 -0.006527 
0.361424 -0.889732 -0.006846 
0.536182 -0.795431 -0.006886 
0.691146 -0.673016 -0.006580 
0.821426 -0.524884 -0.006139 
0.921939 -0.355612 -0.005540 
0.988195 -0.171269 -0.004669 
-0.007808 -0.186649 0.984849 
-0.011567 -0.371140 0.924544 
-0.015033 -0.540204 0.828640 
-0.017755 -0.688174 0.701599 
-0.019872 -0.809189 0.548666 
-0.021151 -0.899803 0.375288 
-0.022029 -0.957119 0.188500 
-0.020372 -0.961518 -0.200541 
-0.018505 -0.908860 -0.388205 
-0.015768 -0.821212 -0.561584 
-0.012470 -0.700882 -0.714035 
-0.008958 -0.553036 -0.839393 
-0.004817 -0.383386 -0.932098 
-0.000479 -0.198729 -0.988348 
0.007544 0.186936 -0.984338 
0.011431 0.371237 -0.923865 
0.014934 0.540377 -0.828692 
0.017556 0.688390 -0.701808 
0.019639 0.809377 -0.548785 
0.020957 0.899986 -0.375410 
0.021826 0.957129 -0.188573 
0.020234 0.961487 0.200290 
0.018398 0.908748 0.387826 
0.015903 0.820694 0.561580 
0.012551 0.700634 0.713966 
0.009254 0.552927 0.839310 
0.005045 0.383135 0.932424 
0.000595 0.198367 0.988767 
0.995477 0.022128 0.193084 
0.936020 0.022075 0.382277 
0.841075 0.020833 0.556545 
0.713829 0.019188 0.709008 
0.559612 0.016875 0.834320 
0.384280 0.013355 0.927858 
0.194212 0.009392 0.986000 
-0.201022 0.001171 0.988762 
-0.391835 -0.002679 0.933075 
-0.567090 -0.007393 0.841046 
-0.720695 -0.010871 0.716450 
-0.847041 -0.014460 0.564093 
-0.940817 -0.017351 0.389632 
-0.998024 -0.019630 0.200140 
-0.995421 -0.021923 -0.193308 
-0.936097 -0.022034 -0.382503 
-0.841220 -0.020650 -0.556761 
-0.713987 -0.019089 -0.709109 
-0.559976 -0.016539 -0.834094 
-0.384164 -0.012926 -0.927389 
-0.193896 -0.009403 -0.985215 
0.201337 -0.001671 -0.988432 
0.391500 0.002724 -0.932721 
0.567041 0.007216 -0.840828 
0.720954 0.010953 -0.716511 
0.847411 0.014526 -0.564187 
0.940923 0.017680 -0.389772 
0.998024 0.020050 -0.200478 
1.207835 0.202272 -0.001722 
1.168590 0.386436 -0.000951 
1.098576 0.561474 -0.000202 
0.999205 0.721680 0.000514 
0.874274 0.862505 0.000887 
0.727792 0.980292 0.001807 
0.563689 1.072250 0.002356 
0.386656 1.136321 0.002861 
0.201962 1.171874 0.003452 
-0.172295 1.157290 0.004009 
-0.353698 1.108573 0.004518 
-0.525377 1.034364 0.004492 
-0.685651 0.937714 0.004763 
-0.830992 0.819083 0.004282 
-0.956875 0.679613 0.003981 
-1.060954 0.523410 0.003805 
-1.140761 0.353287 0.003394 
-1.193165 0.172561 0.002968 
-1.207427 -0.202050 0.001672 
-1.168287 -0.385989 0.000725 
-1.098249 -0.561346 0.000106 
-0.998789 -0.721188 -0.000544 
-0.874506 -0.862040 -0.000952 
-0.728019 -0.980225 -0.001940 
-0.563825 -1.072510 -0.002391 
-0.386705 -1.136546 -0.002970 
-0.201972 -1.171779 -0.003330 
0.172256 -1.157325 -0.004086 
0.353490 -1.108610 -0.004501 
0.525300 -1.034334 -0.004607 
0.685550 -0.937664 -0.004804 
0.830825 -0.818900 -0.004367 
0.956649 -0.679439 -0.004044 
1.060792 -0.523204 -0.003874 
1.140540 -0.353159 -0.003457 
1.193075 -0.172580 -0.003037 
-0.013811 -1.166537 -0.190271 
-0.012881 -1.126153 -0.373006 
-0.011680 -1.058022 -0.547337 
-0.010475 -0.963462 -0.708745 
-0.008381 -0.844432 -0.853483 
-0.006146 -0.703805 -0.977078 
-0.004248 -0.545342 -1.076563 
-0.002136 -0.372557 -1.149190 
-0.000218 -0.190035 -1.192728 
0.004803 0.182183 -1.188561 
0.006665 0.364185 -1.141811 
0.008514 0.535225 -1.066705 
0.010160 0.692887 -0.965479 
0.011455 0.832612 -0.841668 
0.013217 0.951735 -0.697153 
0.013656 1.047195 -0.536698 
0.014150 1.118215 -0.364139 
0.014474 1.162299 -0.182354 
0.013826 1.166588 0.190375 
0.012905 1.126052 0.372858 
0.011631 1.057242 0.547639 
0.010716 0.962908 0.708689 
0.008536 0.844170 0.853280 
0.005778 0.703767 0.977176 
0.004297 0.545329 1.076563 
0.002238 0.372606 1.149435 
0.000230 0.190231 1.193117 
-0.004609 -0.182905 1.189221 
-0.006657 -0.363980 1.142219 
-0.008689 -0.535426 1.066740 
-0.010238 -0.692850 0.965498 
-0.011435 -0.832485 0.841488 
-0.013323 -0.951585 0.697046 
-0.013754 -1.046989 0.536597 
-0.014257 -1.118101 0.364127 
-0.014551 -1.162267 0.182299 
-1.201694 -0.013428 0.192005 
-1.157850 -0.012536 0.376772 
-1.084928 -0.010913 0.552273 
-0.985300 -0.009631 0.713654 
-0.861041 -0.007216 0.857693 
-0.715541 -0.005111 0.980926 
-0.553651 -0.003135 1.079139 
-0.376784 -0.000837 1.149791 
-0.191740 0.001353 1.192571 
0.187060 0.006049 1.190249 
0.371501 0.008291 1.145553 
0.546970 0.009974 1.072777 
0.708972 0.011061 0.973965 
0.854017 0.012830 0.851203 
0.978405 0.014126 0.707582 
1.079419 0.014326 0.546176 
1.153494 0.014723 0.371574 
1.199240 0.014726 0.187013 
1.201901 0.013407 -0.192054 
1.158112 0.012487 -0.376931 
1.085405 0.010883 -0.552383 
0.985607 0.009460 -0.713790 
0.861099 0.007233 -0.857918 
0.715367 0.005323 -0.980915 
0.553522 0.002978 -1.078719 
0.377139 0.000698 -1.149431 
0.191396 -0.000857 -1.192290 
-0.187097 -0.005845 -1.189632 
-0.371446 -0.008710 -1.144755 
-0.546776 -0.009910 -1.072560 
-0.708572 -0.011575 -0.974058 
-0.854029 -0.012720 -0.851341 
-0.978505 -0.013955 -0.707697 
-1.079551 -0.014156 -0.546288 
-1.153587 -0.014581 -0.371650 
-1.199196 -0.014635 -0.187064 
0.819076 -0.374795 -0.420598 
0.403268 -0.769424 -0.447388 
0.393995 -0.368813 -0.845886 
0.897351 -0.276772 -0.342808 
0.279022 -0.869085 -0.339323 
0.684779 -0.320327 -0.656641 
0.549436 -0.609122 -0.545031 
0.864087 -0.452790 -0.114156 
0.172045 -0.610562 -0.770346 
0.620043 -0.160693 -0.780208 
0.884176 -0.138401 -0.467756 
0.191384 -0.833240 -0.485319 
0.965434 -0.117712 -0.272067 
0.808527 -0.274248 -0.524360 
0.672991 -0.616501 -0.348596 
0.445803 -0.830394 -0.206763 
0.613003 -0.724575 -0.180353 
0.524320 -0.462699 -0.710021 
0.807408 -0.127054 -0.594675 
0.543476 -0.725223 -0.353159 
0.997669 -0.100957 -0.118518 
0.761140 -0.586607 -0.157522 
0.133562 -0.925557 -0.282485 
0.941371 -0.282281 -0.164622 
0.733749 -0.448244 -0.492535 
0.248739 -0.921885 -0.157790 
0.553091 -0.289625 -0.787326 
0.323701 -0.688146 -0.630822 
0.830368 -0.443481 -0.295611 
0.504370 -0.173612 -0.856975 
0.135329 -0.745546 -0.640912 
0.190507 -0.475036 -0.862470 
0.176194 -0.315788 -0.939655 
0.345921 -0.544100 -0.759520 
0.635629 -0.463232 -0.606340 
0.103848 -0.958893 -0.130793 
0.441620 -0.585291 -0.666814 
0.332716 -0.211937 -0.928030 
0.208765 -0.132376 -0.977927 
0.524940 0.584612 -0.642722 
0.530759 0.785244 -0.359814 
0.835254 0.385498 -0.462480 
0.419380 0.467364 -0.791580 
0.374980 0.879027 -0.299854 
0.304821 0.310209 -0.909163 
0.179097 0.159304 -0.977598 
0.782787 0.227831 -0.619693 
0.699172 0.545890 -0.513565 
0.529748 0.848551 -0.169160 
0.618682 0.183240 -0.787928 
0.205321 0.862747 -0.437406 
0.184287 0.466097 -0.864784 
0.582354 0.687237 -0.474397 
0.174250 0.937348 -0.251166 
0.401975 0.141048 -0.918344 
0.135251 0.314888 -0.941364 
0.654296 0.710087 -0.338342 
0.132485 0.612203 -0.769453 
0.187986 0.741549 -0.630153 
0.321061 0.618138 -0.720782 
0.887539 0.502235 -0.174350 
0.631362 0.399763 -0.695603 
0.399716 0.761575 -0.519223 
0.790368 0.566245 -0.341296 
0.147817 0.968218 -0.105767 
0.313206 0.937181 -0.136121 
0.737970 0.701342 -0.149074 
0.969483 0.164927 -0.291934 
0.490513 0.307902 -0.833501 
0.883767 0.425311 -0.322265 
0.899326 0.185867 -0.457792 
0.966937 0.310960 -0.181564 
0.922351 0.299975 -0.347709 
1.005165 0.148193 -0.136388 
0.750285 0.394473 -0.578489 
0.476182 0.469990 0.767551 
0.476376 0.809927 0.389694 
0.856877 0.429951 0.377076 
0.341257 0.322838 0.897762 
0.326421 0.901921 0.301992 
0.931312 0.356925 0.257909 
0.984041 0.189579 0.210169 
0.573654 0.642845 0.551770 
0.117657 0.482351 0.878935 
0.766835 0.184720 0.641438 
0.449253 0.172851 0.888716 
0.453880 0.885214 0.188120 
0.894014 0.490815 0.170180 
0.265081 0.150587 0.961479 
0.276740 0.948228 0.147241 
0.965153 0.341930 0.123885 
0.623425 0.175638 0.778907 
0.527247 0.304437 0.813175 
0.334211 0.633164 0.717856 
0.805477 0.635810 0.116712 
0.697610 0.734988 0.173878 
0.608300 0.507668 0.647374 
0.209541 0.751622 0.635779 
0.787263 0.593485 0.302860 
0.655443 0.696978 0.372923 
0.409673 0.724536 0.582511 
0.578601 0.810457 0.227622 
0.131784 0.970344 0.128926 
0.112952 0.129905 0.993172 
0.484311 0.603860 0.663626 
0.163586 0.613272 0.783712 
0.726458 0.522286 0.505408 
0.659309 0.365401 0.688634 
0.163511 0.314307 0.946251 
0.186611 0.938319 0.273946 
0.804461 0.337558 0.537597 
0.855270 0.160473 0.526917 
0.235897 0.860076 0.459529 
0.906909 0.252970 0.402186 
0.267741 0.481690 0.849637 
0.491517 -0.751740 0.331750 
0.320656 -0.353250 0.863943 
0.306078 -0.839607 0.349356 
0.137516 -0.448220 0.868946 
0.511975 -0.140315 0.843282 
0.404980 -0.848337 0.178890 
0.593389 -0.516795 0.567950 
0.262427 -0.160800 0.949322 
0.205850 -0.924625 0.171000 
0.909712 -0.346192 0.157207 
0.761947 -0.372898 0.491057 
0.722972 -0.625844 0.133581 
0.871107 -0.164517 0.455465 
0.960707 -0.156959 0.230853 
0.500115 -0.300726 0.795598 
0.549226 -0.643034 0.460111 
0.591914 -0.737955 0.154202 
0.692242 -0.603577 0.295400 
[...]
POINT_DATA 1108
SCALARS u float 1
LOOKUP_TABLE default
0.027502
0.027078
0.031553
0.031664
0.009396
0.009041
0.021298
0.021370
0.025726
0.026081
0.007593
0.007188
0.031232
0.034355
0.034789
0.032319
0.028070
0.025393
0.026476
0.036658
0.040823
0.041354
0.038047
0.032823
0.027416
0.025104
0.030838
0.034100
0.034168
0.031838
0.027979
0.025416
0.026699
0.036895
0.040803
0.041499
0.038213
0.032867
0.027701
0.025380
0.012195
0.016355
0.021682
0.026533
0.030643
0.032889
0.032997
0.028565
0.024465
0.019749
0.015564
0.012225
0.009552
0.008406
0.011663
0.016177
0.021485
0.026203
0.030329
0.032604
0.032839
0.028441
0.024370
0.020128
0.015700
0.012414
0.009933
0.008649
0.026637
0.025197
0.022962
0.020420
0.017585
0.014026
0.010779
0.010009
0.013247
0.016706
0.019751
0.022895
0.025224
0.026608
0.026419
0.025195
0.022867
0.020390
0.017315
0.013475
0.010462
0.010015
0.012780
0.016470
0.020004
0.023225
0.025559
0.026985
0.026941
0.031484
0.033777
0.032754
0.029308
0.024433
0.019288
0.016836
0.019824
0.032164
0.037182
0.040138
0.038814
0.034539
0.029535
0.023230
0.017866
0.017369
0.026476
0.030994
0.033430
0.032150
0.029297
0.024626
0.019468
0.016836
0.019875
0.032161
0.037244
0.040215
0.038912
0.034790
0.029802
0.023489
0.018011
0.017323
0.023378
0.019978
0.016372
0.013246
0.010562
0.008905
0.008512
0.008386
0.007853
0.008054
0.009420
0.013047
0.016938
0.020775
0.024617
0.027138
0.027863
0.027639
0.023357
0.020055
0.016929
0.013734
0.010698
0.008733
0.008535
0.008655
0.008284
0.007771
0.009592
0.013010
0.017006
0.020922
0.024826
0.027385
0.028014
0.027717
0.021676
0.021623
0.020548
0.019275
0.017107
0.015240
0.013674
0.010436
0.008481
0.007890
0.009357
0.010816
0.012058
0.014209
0.016189
0.017647
0.019153
0.020341
0.021830
0.021840
0.020939
0.019480
0.017278
0.015191
0.013252
0.010347
0.008008
0.007346
0.009403
0.010649
0.012446
0.014141
0.016104
0.017596
0.019106
0.020243
0.022693
0.028202
0.011748
0.022938
0.031157
0.017392
0.023418
0.029213
0.014176
0.015697
0.021989
0.024956
0.024451
0.020289
0.029740
0.037290
0.036913
0.016284
0.020032
0.031819
0.025353
0.032794
0.030325
0.025177
0.022497
0.035875
0.014088
0.020457
0.026177
0.013490
0.018422
0.010527
0.008603
0.014989
0.019242
0.033230
0.018594
0.010190
0.009032
0.023323
0.025948
0.030445
0.019273
0.025263
0.014957
0.011458
0.025613
0.028148
0.026751
0.020242
0.026701
0.017662
0.026306
0.028569
0.014476
0.014279
0.028915
0.021648
0.024277
0.020487
0.034722
0.023968
0.023612
0.031907
0.028745
0.025879
0.032015
0.029421
0.018676
0.032749
0.028402
0.033090
0.031444
0.030031
0.027789
0.020060
0.024915
0.031297
0.014930
0.023404
0.031874
0.029680
0.025630
0.012764
0.023313
0.015568
0.025285
0.034200
0.011662
0.024668
0.033058
0.019553
0.018663
0.018553
0.033592
0.031063
0.024753
0.017872
0.031988
0.029308
0.021877
0.027833
0.027074
0.009627
0.022249
0.015046
0.028659
0.023576
0.011309
0.024135
0.027451
0.025068
0.021096
0.028241
0.015035
0.042894
0.021675
0.041571
0.021337
0.018256
0.043252
0.034162
0.014626
0.039991
0.028700
0.029828
0.038011
0.024676
0.025676
0.023053
0.039210
0.042321
0.038446
0.011235
0.015591
0.034733
0.037358
0.039522
0.033115
0.036282
0.023009
0.039203
0.030029
0.035281
0.032463
0.027297
0.034905
0.028117
0.027445
0.020593
0.017821
0.027996
0.035801
0.023464
0.025949
0.029663
0.019285
0.025308
0.015351
0.011737
0.025444
0.028022
0.026743
0.020392
0.026912
0.017682
0.025973
0.028651
0.014779
0.014262
0.028594
0.021796
0.024497
0.020768
0.034231
0.023965
0.023860
0.031999
0.028927
0.025918
0.031457
0.028970
0.018806
0.032362
0.027835
0.032525
0.030753
0.029704
0.027494
0.019883
0.024958
0.031256
0.014420
0.023089
0.031893
0.029515
0.025422
0.012418
0.023423
0.015088
0.025206
0.033567
0.011390
0.024806
0.032833
0.019667
0.018618
0.018609
0.033145
0.030486
0.024452
0.017975
0.032103
0.029131
0.021814
0.027753
0.027154
0.009213
0.022222
0.014897
0.028296
0.023476
0.010983
0.023967
0.027377
0.025160
0.021007
0.028578
0.015130
0.042548
0.021360
0.041155
0.020759
0.018111
0.042982
0.033802
0.014098
0.039753
0.028442
0.029579
0.037794
0.024497
0.025464
0.022799
0.038836
0.042123
0.038061
0.010722
0.015217
0.034323
0.036960
0.039184
0.032899
0.035826
0.022802
0.038768
0.029508
0.034967
0.032187
0.027021
0.034536
0.027847
0.027078
0.020536
0.017511
0.027743
0.035631
0.022604
0.028585
0.011948
0.022758
0.031599
0.017353
0.023561
0.029042
0.014401
0.015727
0.021702
0.025474
0.024187
0.020152
0.029637
0.037257
0.036340
0.016431
0.019873
0.031461
0.025005
0.032780
0.030255
0.024877
0.022446
0.035800
0.014177
0.020807
0.026122
0.013680
0.018706
0.010800
0.008766
0.015315
0.019300
0.032952
0.018910
0.010347
0.009175
0.035546
0.027818
0.017369
0.020347
0.039781
0.017421
0.037430
0.012549
0.016880
0.035577
0.008249
0.017675
0.030062
0.024170
0.015707
0.031925
0.012033
0.018581
0.040395
0.030728
0.028572
0.041885
0.016314
0.033316
0.015439
0.032798
0.020595
0.039984
0.017274
0.033017
0.022018
0.022772
0.028202
0.032702
0.027001
0.039544
0.024318
0.014434
0.026616
0.016931
0.021309
0.013565
0.023153
0.019316
0.035521
0.018634
0.037468
0.035589
0.038288
0.025188
0.041523
0.029481
0.037088
0.030867
0.018024
0.034553
0.023875
0.014789
0.033890
0.010630
0.010424
0.009398
0.025518
0.019058
0.012519
0.016806
0.031114
0.018298
0.029801
0.011005
0.018931
0.029015
0.008797
0.023086
0.015132
0.013029
0.019485
0.024543
0.016185
0.012258
0.030399
0.021467
0.021542
0.032567
0.021873
0.026145
0.010420
0.022369
0.017117
0.032477
0.022920
0.025691
0.016300
0.014787
0.020601
0.023166
0.017828
0.029388
0.016599
0.019097
0.021064
0.011928
0.019225
0.015877
0.018962
0.015666
0.027119
0.017033
0.029068
0.026654
0.030884
0.018359
0.032751
0.019331
0.026606
0.025087
0.022887
0.015904
0.025382
0.014711
0.027085
0.013025
0.009146
0.010604
0.022791
0.022615
0.016410
0.013062
0.027528
0.011336
0.027928
0.015546
0.009143
0.023445
0.018369
0.029539
0.013831
0.013896
0.032986
0.011235
0.021990
0.013384
0.024642
0.018654
0.014041
0.020675
0.031684
0.010540
0.014547
0.023945
0.011428
0.023011
0.027962
0.009187
0.020314
0.017792
0.025513
0.026170
0.020922
0.028597
0.016808
0.031068
0.010514
0.015547
0.024926
0.012303
0.027445
0.014646
0.031023
0.013880
0.030507
0.020180
0.015954
0.014671
0.025150
0.026740
0.020575
0.024376
0.007838
0.017764
0.029152
0.019231
0.017119
0.017525
0.017337
0.016437
0.011969
0.020374
0.029086
0.008505
0.015161
0.008052
0.015705
0.009163
0.018137
0.012155
0.028251
0.017605
0.032498
0.008362
0.024328
0.018286
0.036502
0.012889
0.010082
0.012029
0.015499
0.007792
0.017764
0.035526
0.015653
0.010172
0.016953
0.008141
0.016467
0.025229
0.024473
0.033830
0.018020
0.026473
0.020462
0.015310
0.015957
0.008238
0.009448
0.030500
0.022513
0.031531
0.013371
0.034742
0.009141
0.022002
0.007170
0.017589
0.011953
0.015069
0.009572
0.014258
0.011279
0.015985
0.018608
0.008208
0.021323
0.011719
0.031158
0.014397
0.028511
0.027971
0.027047
0.020998
0.013693
0.029668
0.016556
0.027872
0.015565
0.027769
0.017055
0.014313
0.020785
0.017468
0.013580
0.013151
0.021064
0.010523
0.013952
0.023724
0.030395
0.032501
0.022524
0.015480
0.023067
0.012064
0.024398
0.031462
0.017046
0.018313
0.023511
0.017408
0.010575
0.008997
0.020407
0.017227
0.020820
0.023550
0.019254
0.028692
0.011603
0.017220
0.016287
0.013471
0.015652
0.010724
0.024513
0.015525
0.026770
0.015464
0.027977
0.030590
0.031601
0.019631
0.022703
0.026545
0.020608
0.024152
0.024912
0.018705
0.010709
0.027510
0.008790
0.007261
0.012025
0.020237
0.026654
0.008527
0.015265
0.008054
0.015823
0.030120
0.009025
0.018240
0.029505
0.011944
0.028382
0.017286
0.008320
0.024517
0.017539
0.036849
0.012990
0.010114
0.011952
0.015615
0.007769
0.017996
0.023357
0.015559
0.009980
0.017084
0.007980
0.016535
0.025298
0.017635
0.025442
0.020148
0.015028
0.016002
0.008156
0.009476
0.031115
0.021616
0.031415
0.013216
0.034658
0.008958
0.022009
0.007165
0.017723
0.012040
0.015214
0.009511
0.014351
0.011151
0.015939
0.018612
0.007799
0.011403
0.021089
0.032386
0.014494
0.023569
0.035980
0.034207
0.035902
0.028177
0.015927
0.020583
0.040112
0.017621
0.037680
0.016976
0.035706
0.017651
0.030370
0.015806
0.024457
0.015870
0.032276
0.012243
0.018192
0.040687
0.031077
0.028818
0.042105
0.016414
0.033623
0.011318
0.033142
0.020843
0.040188
0.017312
0.033168
0.022272
0.013501
0.008950
0.021874
0.028443
0.033079
0.027029
0.039874
0.024603
0.014597
0.026889
0.016178
0.020907
0.013612
0.023423
0.019477
0.035867
0.018862
0.037845
0.035963
0.038491
0.025465
0.041813
0.029755
0.037407
0.031001
0.018055
0.023800
0.034845
0.010536
0.034170
0.008507
0.007588
0.015292
0.025342
0.029154
0.017167
0.011562
0.018305
0.011006
0.029727
0.023156
0.008639
0.026924
0.027037
0.021035
0.024655
0.021557
0.016682
0.032180
0.023763
0.013244
0.015552
0.020036
0.012084
0.017075
0.012829
0.026648
0.020138
0.021660
0.009924
0.019017
0.009854
0.028945
0.027346
0.025099
0.022709
0.023171
0.015195
0.017076
0.027111
0.018481
0.030294
0.027148
0.030605
0.021229
0.021076
0.018123
0.017471
0.014440
0.015499
0.015551
0.017336
0.011643
0.018863
0.017906
0.008260
0.023042
0.020420
0.022237
0.031948
0.019280
0.032641
0.024876
0.030481
0.009341
0.020929
0.028953
0.017321
0.021714
0.008636
0.011160
0.029620
0.012279
0.007900
0.022338
0.029185
0.022619
0.022941
0.027355
0.028582
0.021122
0.025792
0.017010
0.014510
0.039160
0.032603
0.031532
0.029106
0.028994
0.031080
0.028745
0.029748
0.030059
0.025586
0.011015
0.016392
0.023248
0.037393
0.043728
0.025871
0.030880
0.037705
0.030611
0.028937
0.023964
0.018579
0.017844
0.034992
0.025951
0.018764
0.028394
0.028730
0.011592
0.030127
0.029539
0.021778
0.027138
0.008621
0.012102
0.021674
0.016798
0.036275
0.031277
0.027226
0.031060
0.013044
0.012449
0.009717
0.022051
0.034204
0.010281
0.015830
0.028063
0.031527
0.030504
0.028369
0.010631
0.018053
0.025521
0.013813
0.011435
0.025470
0.026567
0.015810
0.020573
0.025691
0.029322
0.027154
0.032182
0.033608
0.041749
0.036229
0.038340
0.023308
0.032868
0.040075
0.027920
0.018151
0.022289
0.015351
0.010250
0.011746
0.033685
0.016363
0.028145
0.011106
