# vtk DataFile Version 2.0
Unstructured Grid Example
ASCII
DATASET UNSTRUCTURED_GRID
POINTS 1108 float
30066019289961331683769199486701367655167775701643039201759616065121915762399525384519265800739303409976344576.000000 23624476064882703277785098382827988912440534973972555424048840054221344860142543933173614958364329115908046848.000000 -345890497608327189264157021438392745908245595760561061704148641585990292404301914022942057897465994429857792.000000 
2959243292117736848765824348078435042777397081195418379404672740009627901889486529649137080265819509466595328.000000 9624441209148410225537912060892087131237807328958005260008545105948687918180287898352593109759947528057389056.000000 203181764181093821096853969575429788294246984105404097502511275725653971906645437380115668844970124442075136.000000 
-28968246308946507417374673615774055274341257207439511857446888344042476202637688097107937919724282815207964672.000000 244658628763244260164678123141665997486638478072483332857588858444666832170341304739409547475719142485524480.000000 460891001498026461138305972989547718100256859064194122762388730539557347739507238652831294210502117965168640.000000 
543782207395785697829903210524706630926339849599922865115524588287049420817543832857020039086969387130814464.000000 5887437484210469904194250958550793935534650409215530184818589142359490642346967008703884089201249479867498496.000000 79145810171818611651870873076260551492765853310268659221776791780854261248004053024524773841897214215651852288.000000 
3113009177588871665086735400578984789593478064179336412540698168502234125045572115320296934172349974114729984.000000 17211701332087737932177180742813910313882626356330926863447168600554611736073588102786509038105693474741288960.000000 23264465114501125439835712376776131040705651214711245925032942368839074840149861804649281589574857206806872064.000000 
2814322468532423208231554317066331659698574456699157028170546529723675116577357502774778338312702882735980544.000000 849944530704538913184195020941170262570433444139841379891335475734212989068201260250057829447148140115263488.000000 -16642488685170611068988634151480879837714814024234002583244300595720723598334024672006982380593273362186240000.000000 
802834609390374672575156048140903751276617013316274185503699719643562654285707066635981073823009141908570112.000000 -411893979488610853989099043568676087631345727402075433586616944819661376167445991365305667407856007471169536.000000 -19609666546689699445699310212994792199653926851650937802360620003798456134148950909393765572421114921731751936.000000 
16903970028755491749372180736215857966619627895046876052943052617148248619259434930119789986955136469603188736.000000 805840351816105014759238620071671669361074307367394333721250357921906326389997589659139173369189012978270208.000000 70056049625506654276237447459665101130759873489995676871510586364098618099699322693672690904096951077175296.000000 
1814414700865318563500821947333666948949611741766822665065793203393061678531766002853770556635907893141438464.000000 93649702992809992614289710203243519638457656389511734771938464377175275031065449508545578547125105509531648.000000 -262065239677778736181491220771063578381403284737738106535139221885017034395999466081569058984318286700740608.000000 
440468347464657334072892166426504161724818041775514303460975286496105180249961888144302721710404175214411776.000000 102890595391413175647928478775708376056486140416853440215030500327422638766926699161203081733421952537722880.000000 11081609778651959098083611614050630015854871853538713140510354109265977626844061383080744300980917883465891840.000000 
1943900419311821032642910934746725498733355811943211661363121848889106313094442349257467862215325985663877120.000000 -1539658982318647721703405155160781889716470630125870610006986137236307718118257528576503046807180625150214144.000000 -7732736103068841663220213672571174252174646600184845176214604683126984056158523860488371905467031104144801792.000000 
-22464582590284954873773048463449607185918389823223446075507528881110224807009968237002935544517700386260254720.000000 -5136193291908726450610854036873834957625249507958091644667088185093880048252597120193981669774048983622090752.000000 -14413953647689629650184535166613122879727538932345850416003663658385364659136340869817315661818579726106624.000000 
2174196191074280127253087081122347119844898952947643912810721240401416113745786421052025419646028852529987584.000000 19123208979507568113983973005988041344330882614556480174663675970371200258417447996336365323150745155995172864.000000 -8681775579043902925995769185506743192842933222715699282966212540015082374930479652428127208639874487384276992.000000 
2393903784810421799069468422469045402294080028494023546807858155548043432226803275855526013890575987495665664.000000 -827172682072068996256460164034198343771770152543676062851540815265136615972427515143931716849949472702070784.000000 15689549694747796106537954785860511880565750376168122608735994599607196054303335558624918924045750995070746624.000000 
-8487999494483740909550741462394451623803918188076384658696023896595391374460965032127185344899141293349797888.000000 -808788198062799319223436756109624841335736933901771155130166539570704682112992952705226011852754805065777152.000000 43524527270213355475544291563652419093738996541957049423779649143693898935366053989533012549618285263454208.000000 
3253929158043641299414094430060788286225106750188183934558551911759417411487782843745436193208030557666017280.000000 868752525254603981177754818233221997023615799159380323162815279730767762605853765290843834766783645227155456.000000 169115285879172359343007118201856829786150660831293380017373333397444315649452880511417848367761629948936192.000000 
-48842143105558353048666529895764513617678264627739272662648338015462091036761384789564402883097043473115643904.000000 -19542294949496191929828246995471321099974488141602861651984650484098192805775127232303261060822970061968900096.000000 331784202479001461224836797512998642968298390130203813075324969352517136851829487547102797227079308498960384.000000 
30147035364122349973424983946254963447926140200104434109730109555602566993414568037719987472411996573258481664.000000 -234865245938232707876304249833690017985322105061526277314445801892748198643931810952496222850145740558172160.000000 -5228762610528140394860338319789710985339669728514748332101759880031491029117989864667420783189174639361261568.000000 
36601886920366856965188776643868641170931238140721710683639031207273798181988746874936721874753362360486854656.000000 -7298736155219251545163050801214337920269656679741333704816559261874541926877968889029190779445953830999556096.000000 272130800838389414261273249319165020440721016055812085800840054551720929044282994610506218460493476272275456.000000 
2211183139240069055334346922766447484467344367469366267462718130826798336277885266536675909557450098448793600.000000 -2093057193363482757887882182156130403253554036336831676502130924387205242207517304157160195859447161791971328.000000 293301623061023548621445136892684381626996144966072175166335828870118957547329578166650401686814727516192768.000000 
3726117722322510046995784862414356498631748316906801865234210263376362252941816596566910384141994004513292288.000000 765381792310783880578050126806259558848561401423645092303405564690285433437117767474634896231941996531417088.000000 486567137873116026156442700391160597595261416058369794360224436784018237356075307803802286811073051239645184.000000 
-48947357140040725053815603522104381618763364828710167552846551000164128579595978091608355129348775781033050112.000000 -1274501134420624841440515585819275986284813908449051722643954916339885354157313553959618198355043813299322880.000000 -8684914748821799755222760559772206519388628531384200724973885491973392039256133481437630035240613032635662336.000000 
60974437878173156107057177648446566598575016908426686392595829789354043769929973710661494701883891417455001600.000000 1222822605171002968613237678314070548310955704177720042069963155530319374756000840712582568593604764724363264.000000 -16075490083536112863172697803496778801399815708735495926261700290289963237535236754313103817842983419091353600.000000 
3080581822982442163038740997283985960037711364827837213780606710550344121136899375158442648469869963157438464.000000 3112213900789220570038846993211931532537991898925433131198511576557607073095371569426009199338534500854398976.000000 390554376843664579033609531978500023222351053430890940329271386415527299513355450373335812039976999769341952.000000 
13620701983990367326925971553743539409269839911982369945198335013018547206282297769661621135081484359305265152.000000 7297895556278237907042238193424161980810500681054321378700374637620627813356707315113808734176897552951017472.000000 313622709558968910711186016491384614214562679843390549687330653617348691464990726019909443702923235910746112.000000 
-29792259737892036846624483126427635578709992555734563248620623887642655323041795414792772204758690215573323776.000000 1348887005554813986683891306520652963849651629250756909488588451465450516503918909565348397595070859210391552.000000 98539422552368041356783515206187750565939454214820516318696683991653436046832319472647512670551896491108073472.000000 
1837700865195096703212666573564845368087156324695384560304408220744154590579447757843713868937998473994698752.000000 10406753704138076379189556444158514970301554975726275623854738387400231448020394622969684718562724764410970112.000000 30634170275352085519310940302156462518106803141672369332246983065516880454561002126561807653406448933197053952.000000 
9710204547920174738431637863121869045169334751527176685502910416528750865414218128124268557860533545350463488.000000 1368551690631099096911370702607645626055847509509395866860588791760612225108523336820875310957517614190952448.000000 64120617225022956773388818105834095340448737524164132880481422247633937639103977465119955972910422219861000192.000000 
[...]
POINT_DATA 1108
SCALARS u float 1
LOOKUP_TABLE default
38238737237530198820024949973215582245992007307664521822566094236696767249802449551845809010641351716288593920.000000
10071160423684733694794664080727404845235674650274169560029455812731971660769015042082501851651548525182844928.000000
28972945528124735509569252478626391276017415742919708190715990814735379751295385868836290904625775695940812800.000000
79366346060361848546642463809187615325434116150888427482728338628437017278873426965909202700028911095264575488.000000
29106164741315253287346102434211477927556630656597070858035425506554705744181731328366820987380223010880356352.000000
16900155215210090101837563159663392363975354424668440880342252282398109750741953342599771862724204779628658688.000000
19630415740190910898828440465133868846822149208073523427860708756479827812352973928874462447970065922136211456.000000
16923312006098811208814478598592970275361846332127349340225631090047120241465268492436955673602394204521103360.000000
1835633177798384879849878466854481756319029905141945473700137543340285614213490049356200174799506175745327104.000000
11090837395167821554481443235730901487676596805903587142076635302435321080191348546782025216410023186416009216.000000
8120622282912772547653187034599374730552105182418749889719439194776118305285433264946519757761224091711307776.000000
23044265235620810039471083706295416278503044935707521865128363436138537086743310232717936887306756886672441344.000000
21113916689143297890293900182919825291683613696307003285147885141400925851425924395368119639653636831891685376.000000
15892669995971621270121972150709331773855306818395069118240343505948028232830279302317283886293447746797961216.000000
8526556640998521579686331495253825574991289207515516448615705938349464290267635093479312264826871470849261568.000000
3372148557762668695363786885521694179705759185245830884089118331222100879698962965114477628198317507118891008.000000
52607664040460492034818755756033127759995097962085900351374045356903419270348430108738209220605396487663255552.000000
30598020546542717937663920251865774106069889854040913946922495989503770941219719963471843301622473769474850816.000000
37323501051851929301648712072332128056544330267368847276236095939313272443412668400875820876879402642660392960.000000
3058797988105853343817922648085613856679660049434180368628941696924320799836290683064615892671668354103115776.000000
3834906797858951356842807659012743599738325094498629412735727921141173968637515056506983853174965790748704768.000000
49728220039838921904891999495637479691578061207881812566295641696999526171203571821483483487164411227796406272.000000
63069792699110580901361779885166022099197788296618442384919352104779174748737838055198772049972130670549401600.000000
4396406766170212407536879760286903056477933356906945574099214150936584605067252692007825261619198788039081984.000000
15455780837310546525906050730624502172832765015057748191863304950430241841839088505222396137930245333579726848.000000
102953465378285914371699182756091720717026912350169076726169601808010227766206629725152315641997120848948887552.000000
32405710231189124477638697933534856418899570331835580934237206812656477264843619177531223466155178767266349056.000000
64866127982255029422865960657313745925042761608562166721496645499184818909074021484709573152273816055929896960.000000
94659946979446670076708513613442583569331753770529145515531404704973411299997152677714883756518573570588147712.000000
7825336276638092618499623229838161147199986819222620283966092648276213495609473882295545720959754646851682304.000000
2730049049282872773084311409148086545980795101667059984667542045406859949628647537402889711322874470440370176.000000
1295769246953217577106594042922187100973744350853504878992102536433926770543081913434236712888492697371803648.000000
10313936703656751089454416635606637677517016561529537553903427198707333907186467640947665690295785885920133120.000000
9855932356799788808230586593032879328406469760401918647569699221511981578712275166417454274836459147002642432.000000
12035072237414295681269132592755541857201344543949423529111318001005375865029508418921012342578559530618060800.000000
7935974625852842789414954564613728849361162068675291801012985175454094324569079116379307854418009287185924096.000000
32293945924394490198216011249990028728700368397638453308345625609776176843039848122714827605908380513428570112.000000
20447374919135507823432497316585917258593698337043469665703251454297332782525552617259732659199668075297243136.000000
10766944647358061634047359172622115590436310780827202795907045515825359980475651220866459993526505733378539520.000000
2067547754911427169897918999568364247071481987601194103107235269855159619425057469430555632961804210498699264.000000
14385217915640060149974133698868390228204328661228377861188137904240036867107837054931972599285939059862536192.000000
14229069783397120066775907877647140138085683590218015985530685359157968132974698435218420639540456248104189952.000000
12710730307799428462934941422525764686378109389988472919673794677166505465037726087425120309296907584349929472.000000
2290354636966610561074133657865450376014754053517165310538820953338818016757849977057478219540426524796649472.000000
1819539262015644830933700179635165722881605793076160453322506968010730635321167788575710030705136505551060992.000000
25654283169936449710613107413232962257347025227040066121389794563136804171960225903526645973756308390993199104.000000
11507662119097666204872362329734389910147322570384322078619989452756287646667000964472780590706041124389126144.000000
21032726858388722670255181441201534290129396950198357313025073250931994547010517253078056779187650116259414016.000000
14597056655509506848758166272608494132656562666266176380555074566046059081002509397735516898966270471483424768.000000
33771097152562111825773772129917986426422525122279794486990268764556179381864422828681923430351936621067108352.000000
31141032090095409062652888580741782969380160747521155120052326784375591689252972213897562669650935071480217600.000000
13943137624822015324090345586865599270480464356241165648699231617016851455650650414042669737260514016810237952.000000
1518515439326541262425647672247893819168801140514164006535464315539727033324071216245984006107573175879467008.000000
24051873385551633810953276915604615605704645666306038458741841901246153920517922527675404760242004253560799232.000000
6192681207404521260158669360913836711604561844316834240994579626082213270668854670791094570646643440202285056.000000
14300651241348554621354825321927527610802407192680609883995228724486138064151910469295992489706616641801945088.000000
4213512730227770136457186141772264861473720819339989297422575702506809870843926806521804649315691352761040896.000000
22469561140700102203494032836891101740300713886830933365408342367752038918624678689468584904032728856840372224.000000
11815026156015452964661191436680501530697617598225986171344711775294288808872733333468370364182882477156597760.000000
5482235219044140233124231988710126463491268045347206428428671625822617530675291078321280480308874739173031936.000000
70285156038375662232150214635243038135363675111717717701146772875399366594854598066115742061952017147459796992.000000
22309919066241986781272686574766719743107974570944696491232079644036802372412809242414018865442412228060905472.000000
5177170917767746063450705705774700333682853166339689267619588763486978210999918414921991133682484606962499584.000000
34927924953345115912730489673722584188559803552558171426181403488589597187366436682221506399347446829822246912.000000
6978191620045917056525614217311725037563845409892639427964116157664913726966722558902275322080035847312244736.000000
3299197369964695015041392176766865732290837798090456003749623784687541358811752354308667748389601772017025024.000000
27579979039655884568917983448909911666288004366861297284774067948980197548815563202210869308541441788071641088.000000
2865476149982418504001245630256080246125347242228471293118156547402869397809619073159857479325777786084261888.000000
3637058467570801436970064860006655497531317779741484684440250762673534976480519044440724655072703216787390464.000000
26294097150943516022155065892247903972906220798123736434000304224528043473746690887894217383612818347419238400.000000
6079325179456264296074499604060594181879981915230677793684666031900921391888135301423218861269602299317059584.000000
10752360469520412812056013960501444131120296844601476705357682675280830618607386293467362577792801253667897344.000000
12686616265283244141469704959307781506952551770085039659240538739386870734820533739249474609261621842670518272.000000
43463081592734869758784426217875837873821346981991042393622297267394229709414023628831302267061181660065169408.000000
10177380417327121590830169088284775821045760677138228457397283546547448626402845265804951973017362094857650176.000000
16851647423398676655394717614354779021968421201527897158196712955557216192122377520443179150303810147326099456.000000
15593947002190904798729383262204999920859777597940339229939636337840455942042698443698747961010418092030820352.000000
18511076347446798559778896436883480316023458214124803080221979357787997459041619863339280309541773953959198720.000000
77645215353694395791742306469969228652624137808405657185948952495944589758601766038951984346901588054410002432.000000
3072130642397719060983294497391561583246338814219768881980960205463255726314070581818095475847017038761426944.000000
2449080758004462452756774102937036479873511762361543064949326627782173297593434277726926316035867555286482944.000000
6419274092060730135475994185560307628521089313172872229238347951729962879609570658417344898434888732931784704.000000
31427222310149652689129356487061100589713858678352744894999614979806553959682711456711170218053396109172146176.000000
46616952955088352810747265775921889921830630590857792810525554531856049829166987792994359375012678816340377600.000000
35180861932994636410278908798216215280591971492836166538387330108844656503665383252633580624309678980594663424.000000
108647143536729946202217564599811748434175129390809785268110011645753781567080500081671449631742275281425006592.000000
9360529244035679661483300990678299917709135001431217017284011413958119843864024213153414124331409729531150336.000000
23473734592479758832926603532827767527760421943101316933593433043019781535704945553849077429821124776277573632.000000
4092179692133267135832103190512341681666673412790738987841586042480107323728164754634365354937163646727356416.000000
5353343635396408557052445182168439648466222411069839632422778176245178498466784739999778770674235317522792448.000000
7988886243529935439035199244412365815958102092274224928358530266750953868153644922719521109102927525042978816.000000
2171432179165202335787245718308961674197197607799207332153036994673822627552003931470667646403507403616157696.000000
29638858458957996513378865217452072235517054842266404643441255165936350924057676525625733214055666808212422656.000000
110484070159636843316728313200588070759666205590291233652364613720084895017772874426775408019784223493684461568.000000
6282185786993981007801209706320486923382258137021782656248822234745452987967425331629855145379485910741024768.000000
10213677420806988018320612912755621429978411151895953179342921840329911673419995526817216822170722581021196288.000000
13928559107646288113051795268879655511119642500141124720796749695539026183805905681289251621793392109436272640.000000
28109178579012540310498465370736503107263573194442294148672069552498248973409165286307077853197106248798961664.000000
2663076142357719449023415749341470547750114944605690737768705298609044806528339637073010531878650657606991872.000000
17677398464328107724776248483199250950168454640423773380019737443354585066475130770998956607571304475594326016.000000
3050203172185541055552791245172337972741452389366429687225413737503043558937459057653742355747050726656835584.000000
29574369447873127223969818116055734191476012005398675647344653709972517704764917080395124765760757789473374208.000000
20076277240174349098135941399081787391561330532308008892207305132520310099348705576796623718973091751703609344.000000
8114411856249566934582564897608263718659770440223486137507327156561157131251447338516981616749238630253330432.000000
68256256874686351206694746549941528554319162362696461770725182412536248277749127597237313908166230826205315072.000000
15566203662177705634470548723105055662085230860314116598088060431169670088423721486078645830779539663624339456.000000
2485150107065880055452903645824251297751759826575874144516302449986880260698029101009707755281929367325769728.000000
3637167586426894170258266321647309258462308925869118044235074420982442363733278572120627561476652037019009024.000000
35703418573579998427337431841297880873662290556327711136886598273531479362944319216610678864494877111136288768.000000
2247765173641401700768601306007549095311240231388599792967971132696746051097711597198835119434406816720617472.000000
13803007002210646902579399097365513923530333461679593711031232100530434740473473308065436349053167908627152896.000000
51156956142154158366777981631678266790696221757534483686727631105839907893568334434672616452747416691338641408.000000
61943403011770678481935005624131498481026378086746265356624769516075272097506941495912661071386376157075079168.000000
5135106180491502436102318124419816083272621951529596943641008050626093577390596738283443497342290480915808256.000000
3105529332588769657142906409914646096145704672219275349631182307270455584633795788492175921646672323459153920.000000
1299533037023267241511561329350647005235400331176775906304213810779504553128789796533859133220636864572030976.000000
26566897917676969276551102377169508168422738309106927299470844653281283024801580630228740776005057666487418880.000000
17420055396482235799531256805757727635732580321428038633509571098356359863195441447508146847039073642694574080.000000
3525290036328588310717979110267564550951345923829197054081719121872827949230714631289481506861948511602081792.000000
7938625914311001147380968541957256203237499800532793195458988563417222177367206886930849205874511933335404544.000000
1292234983953495106746303458056317789982142797390196645378757165624129576542936633611279431158427516493889536.000000
5378972101265489753125306226776097978791968449236551149284431404578035763260976478774898690810441318981959680.000000
589770830758639508494630052579503039062765388155333948940934326875350531260826597376285476415017758819876864.000000
8374509394391755322617305682002515500050151522661180899979363213849442470233056792277171531175905278140874752.000000
1834897907844062531128635547633877292465146137440523845085294490076345364229636435347428114771593755826847744.000000
1264320689561085812223236693665336270200730080707252402405552355463714438334648475467039845027601033505800192.000000
12431249841331985271962603791269354719014361636460136444046415676675123146582694660577692948335041906942672896.000000
617151830609747250500926086068372998254275660876125808842505735200267588732811983896300878643733769610067968.000000
9356994152916949537752332058324346514989456066612600407526535674058400052834284560447862951994711122617827328.000000
52118795882423050177233501299775298104199442762222426564934240164619050479351428134697579230467489165521977344.000000
13319271749113437768370246882809563487659002348450506127443774597760092261024130837601902544238548770961227776.000000
14846777846387019092376666403943909124300022220769675137316401207978359408041201871704553292769488182525820928.000000
7534731395764412106795478750841727376318144394975601914257738868736994126071794499991817272506860393648357376.000000
653605585712241708537474574540555398480161741162948307830218473372763789676267493210496900832157982038949888.000000
3902249635994353647238242241260957213650690971689705023035881708939612698522244723417407457951644174893711360.000000
733628447088009991921284975344129811084303859141555527598680012157157796937099079529806237612917727827066880.000000
7481507096908940298629198270742574541469172782439554691965623054509427346881698028793895862100522092288016384.000000
8882092351290079758131491208359941196963790632589572518857115260955897788255429295975933073955380110777384960.000000
28674198952019655527832324838441581331628744286963384691680654233951265987750199565046909187979137620998356992.000000
27103474247026773468757473640986596066900085779621738618292757396552274153394097266509541113829615690556899328.000000
927814924628840127528401412346248867515604548123566218111240199999317991371948596071980890235955045178802176.000000
95543271662066720617339056611692491261291099656233072278085874727240232288030700847337075410547397662764695552.000000
64214381081500758018553315613810577643635962681603173469913930322952406723658285738634426333129639327267028992.000000
58382435427231784273822906029838466566052793300899861176439971334168329232699184221221230444593099934057627648.000000
22658175540792487163778399183619454860158703168913870804126729058082253295464849830844944874062760314211926016.000000
47252861592559758671071786911055397815307887699369997069522455638400740964214977012452796629555586868080279552.000000
8740331427701911324500655560809485952185790789691919594033074194631492398190683054292815803354042060672860160.000000
59580340083637740035292784613956221115688116565824413295618517312938898489056476908972339038617804288643039232.000000
20650672148257239278736876106478089887328566553976491993545106441662253335787340489197082169839742686217633792.000000
9122749672778943838089655021284572557002987706695384187658050981524713287959747343452391889874869646146928640.000000
2650508746826818162211759261384335888898471752704761376800691347377435505490834239334855974096173601113767936.000000
8366260865473467238257712562656114983155947462082393840397423882594063876267558606900583023333952885427798016.000000
8011371658833430438759504455353598653666496264966678961396057692250581989380026154219686639455307180168708096.000000
13775618014619253196830993371577421140113409854171330490072859269630772233957630562629466357952565519067381760.000000
2058498022640359290687251865093285526147331738403493552159485747552404777001241318589363800764976961668775936.000000
1890870436437377103922954491184155142665675383790048837435472597029744127322245493925689067990964344838946816.000000
10890210277371674175616858176762979965557098961625093165449313869321109960924440201422272436030642336022134784.000000
13103021294003363008896363963483851883297582218484857443555649467862403393583588200789844321301877006312407040.000000
7257598626994179703814707409875673190711588131803924468816987672418597955193969058141950714081934036697088000.000000
15019780332899798218290813669836393475096660386543359362068024764173755195165102473906143820213133768587739136.000000
18006320914324652366389975093284618360149109179618426338173833291329180945246069338362557455950711338532077568.000000
9173854634639288759401767097170629117784051831095910539514562232973253992838870400323933743200551069831659520.000000
12316170397872848306036710308306061584525032861536308419075687561457161562053096560742177804698976520710914048.000000
547602822103942243704963982640680657566347948151482798423446176745197171687530991904512132499611191588421632.000000
5616619039860193530295789630571147479013698690928819659817052743844866623996043190334228830453570399339806720.000000
4601357203618374998733967088806454907483281598832945155824341545286003762296718433390379316743306786822422528.000000
363342929675021903856975405062846484902675723580315021376412388229598393856605612978040566539890841714950144.000000
39918134079911360419448262913963413004723404232692703973156957293256035519560895924342846466257601295252717568.000000
19090401056725246516805788674427187075484565854837239286787270243705647753755211171165559770994011944809136128.000000