# vtk DataFile Version 2.0
Unstructured Grid Example
ASCII
DATASET UNSTRUCTURED_GRID
POINTS 1108 float
0.983874 -0.020901 0.003430 
-0.984126 0.020606 -0.003225 
-0.020815 1.021614 -0.005695 
0.020805 -1.021759 0.005751 
0.003408 -0.005545 0.993647 
-0.003481 0.005765 -0.994411 
1.184861 -0.013809 0.002275 
-1.184876 0.013950 -0.002136 
-0.013788 1.220430 -0.003553 
0.014077 -1.220618 0.003751 
0.002202 -0.003695 1.194041 
-0.002169 0.003579 -1.194442 
0.957680 0.175710 0.002118 
0.895923 0.364704 0.001027 
0.801553 0.540112 -0.000052 
0.678060 0.695588 -0.001511 
0.528980 0.826646 -0.002823 
0.358702 0.927590 -0.003914 
0.173351 0.993472 -0.004822 
-0.215582 1.009090 -0.006168 
-0.403126 0.957060 -0.006530 
-0.574196 0.866299 -0.006511 
-0.722246 0.740092 -0.006257 
-0.841178 0.585246 -0.005876 
-0.925528 0.408653 -0.005212 
-0.973522 0.217873 -0.004320 
-0.958026 -0.175880 -0.002001 
-0.896148 -0.364816 -0.001122 
-0.802132 -0.540303 0.000178 
-0.678589 -0.695534 0.001598 
-0.529122 -0.826352 0.002789 
-0.358613 -0.927191 0.003859 
-0.173164 -0.993538 0.004950 
0.215764 -1.009212 0.006318 
0.403262 -0.956934 0.006627 
0.574338 -0.866354 0.006666 
0.722556 -0.740106 0.006369 
0.841192 -0.585274 0.005942 
0.925758 -0.408888 0.005363 
0.973613 -0.218148 0.004520 
0.007558 -0.203261 0.976852 
0.011196 -0.393858 0.923236 
0.014551 -0.570444 0.834209 
0.017186 -0.725433 0.712438 
0.019236 -0.853036 0.562253 
0.020473 -0.947185 0.389842 
0.021323 -1.003693 0.201469 
0.019719 -0.999435 -0.189815 
0.017913 -0.938418 -0.377339 
0.015263 -0.841399 -0.549749 
0.012071 -0.713132 -0.700401 
0.008671 -0.558024 -0.823800 
0.004662 -0.382003 -0.915924 
0.000464 -0.191568 -0.973465 
-0.007302 0.202983 -0.977347 
-0.011065 0.393764 -0.923894 
-0.014456 0.570277 -0.834158 
-0.016993 0.725224 -0.712236 
-0.019010 0.852855 -0.562139 
-0.020286 0.947008 -0.389724 
-0.021127 1.003683 -0.201399 
-0.019586 0.999465 0.190057 
-0.017809 0.938526 0.377705 
-0.015394 0.841901 0.549753 
-0.012149 0.713372 0.700467 
-0.008958 0.558129 0.823880 
-0.004884 0.382247 0.915609 
-0.000576 0.191919 0.973059 
0.966564 -0.021419 0.197033 
0.912128 -0.021368 0.383077 
0.822171 -0.020166 0.554627 
0.700600 -0.018573 0.705267 
0.551658 -0.016335 0.828711 
0.381138 -0.012927 0.920028 
0.195940 -0.009091 0.975737 
-0.189349 -0.001133 0.973064 
-0.373825 0.002593 0.914978 
-0.544419 0.007156 0.822200 
-0.693954 0.010522 0.698062 
-0.816397 0.013997 0.547320 
-0.907484 0.016795 0.375958 
-0.964099 0.019001 0.190202 
-0.966619 0.021220 -0.196816 
-0.912053 0.021328 -0.382858 
-0.822031 0.019988 -0.554418 
-0.700447 0.018478 -0.705168 
-0.551306 0.016009 -0.828929 
-0.381250 0.012512 -0.920482 
-0.196246 0.009101 -0.976497 
0.189044 0.001617 -0.973383 
0.374149 -0.002636 -0.915321 
0.544467 -0.006985 -0.822411 
0.693703 -0.010603 -0.698004 
0.816039 -0.014061 -0.547230 
0.907382 -0.017113 -0.375822 
0.964099 -0.019407 -0.189876 
1.163341 0.173637 0.001667 
1.114821 0.355705 0.000920 
1.040781 0.528638 0.000196 
0.943345 0.689528 -0.000498 
0.823607 0.834999 -0.000859 
0.683612 0.961652 -0.001749 
0.526494 1.066263 -0.002280 
0.355492 1.146056 -0.002770 
0.173937 1.198150 -0.003341 
-0.202654 1.212268 -0.003881 
-0.387394 1.172915 -0.004374 
-0.563579 1.102935 -0.004348 
-0.724403 1.002867 -0.004611 
-0.865503 0.877031 -0.004145 
-0.984319 0.730248 -0.003854 
-1.077198 0.565482 -0.003683 
-1.141758 0.387792 -0.003285 
-1.177541 0.202396 -0.002873 
-1.163736 -0.173852 -0.001618 
-1.115114 -0.356138 -0.000701 
-1.041097 -0.528761 -0.000103 
-0.943748 -0.690004 0.000526 
-0.823382 -0.835449 0.000921 
-0.683392 -0.961717 0.001878 
-0.526362 -1.066011 0.002314 
-0.355444 -1.145838 0.002875 
-0.173927 -1.198243 0.003224 
0.202691 -1.212233 0.003955 
0.387595 -1.172880 0.004357 
0.563653 -1.102965 0.004459 
0.724501 -1.002915 0.004650 
0.865665 -0.877207 0.004228 
0.984538 -0.730416 0.003915 
1.077354 -0.565682 0.003750 
1.141973 -0.387916 0.003346 
1.177628 -0.202378 0.002940 
0.013369 -1.203316 -0.185254 
0.012468 -1.155898 -0.368705 
0.011306 -1.080036 -0.542322 
0.010140 -0.977943 -0.702048 
0.008112 -0.852493 -0.843732 
0.005950 -0.706830 -0.964763 
0.004112 -0.544253 -1.062088 
0.002067 -0.369140 -1.133600 
0.000211 -0.185482 -1.177965 
-0.004649 0.193082 -1.181998 
-0.006452 0.377243 -1.140742 
-0.008241 0.554046 -1.071630 
-0.009835 0.717398 -0.975990 
-0.011089 0.863935 -0.855168 
-0.012794 0.989294 -0.713269 
-0.013218 1.090516 -0.552620 
-0.013697 1.163583 -0.377288 
-0.014010 1.207418 -0.192917 
-0.013383 1.203267 0.185153 
-0.012491 1.155996 0.368848 
-0.011259 1.080791 0.542029 
-0.010373 0.978479 0.702103 
-0.008263 0.852747 0.843928 
-0.005593 0.706867 0.964668 
-0.004159 0.544266 1.062088 
-0.002166 0.369092 1.133362 
-0.000223 0.185292 1.177587 
0.004461 -0.192383 1.181359 
0.006443 -0.377442 1.140347 
0.008411 -0.553851 1.071597 
0.009910 -0.717435 0.975972 
0.011069 -0.864058 0.855342 
0.012896 -0.989439 0.713373 
0.013313 -1.090715 0.552718 
0.013800 -1.163693 0.377299 
0.014085 -1.207450 0.192970 
-1.169285 0.012998 0.183574 
-1.125217 0.012135 0.365060 
-1.053991 0.010563 0.537544 
-0.956804 0.009323 0.697297 
-0.836416 0.006985 0.839657 
-0.695471 0.004947 0.961038 
-0.536210 0.003034 1.059595 
-0.365048 0.000810 1.133017 
-0.183831 -0.001310 1.178117 
0.188361 -0.005855 1.180364 
0.370161 -0.008025 1.137120 
0.542677 -0.009655 1.065753 
0.701829 -0.010707 0.967776 
0.843215 -0.012419 0.845939 
0.963479 -0.013674 0.703174 
1.059324 -0.013867 0.543446 
1.129433 -0.014251 0.370091 
1.171661 -0.014254 0.188407 
1.169085 -0.012977 -0.183527 
1.124963 -0.012087 -0.364906 
1.053530 -0.010535 -0.537437 
0.956508 -0.009157 -0.697165 
0.836360 -0.007002 -0.839439 
0.695638 -0.005153 -0.961049 
0.536335 -0.002883 -1.060001 
0.364704 -0.000675 -1.133366 
0.184165 0.000829 -1.178388 
-0.188326 0.005658 -1.180961 
-0.370215 0.008431 -1.137893 
-0.542865 0.009593 -1.065963 
-0.702216 0.011204 -0.967687 
-0.843203 0.012312 -0.845805 
-0.963382 0.013508 -0.703063 
-1.059196 0.013702 -0.543337 
-1.129343 0.014114 -0.370017 
-1.171704 0.014166 -0.188357 
0.818601 -0.417996 -0.409289 
0.430906 -0.816768 -0.438729 
0.394362 -0.385837 -0.830247 
0.888774 -0.319512 -0.331081 
0.313480 -0.918989 -0.330273 
0.679638 -0.351067 -0.642494 
0.566045 -0.650885 -0.534842 
0.875860 -0.507969 -0.103120 
0.189306 -0.628320 -0.757500 
0.606178 -0.181935 -0.762578 
0.863650 -0.173768 -0.453596 
0.221836 -0.870607 -0.475913 
0.942868 -0.158524 -0.260208 
0.799498 -0.310813 -0.511102 
0.693996 -0.670259 -0.338882 
0.482279 -0.893313 -0.196960 
0.644886 -0.788972 -0.169691 
0.529475 -0.491376 -0.696678 
0.787696 -0.157103 -0.578467 
0.571435 -0.780519 -0.344116 
0.974523 -0.144060 -0.108729 
0.782740 -0.646462 -0.146762 
0.171482 -0.970630 -0.272888 
0.935567 -0.330280 -0.153787 
0.738837 -0.490787 -0.481384 
0.288450 -0.979262 -0.147050 
0.546936 -0.311397 -0.771302 
0.344241 -0.721219 -0.620575 
0.838273 -0.493170 -0.284548 
0.492713 -0.189016 -0.838763 
0.159855 -0.769919 -0.630010 
0.199825 -0.486043 -0.847598 
0.177984 -0.320179 -0.923401 
0.356980 -0.568180 -0.746559 
0.641387 -0.498837 -0.594804 
0.144682 -1.008820 -0.119998 
0.454936 -0.617436 -0.655485 
0.326276 -0.219527 -0.910622 
0.201507 -0.133223 -0.961724 
0.479832 0.581796 -0.634714 
0.479704 0.784269 -0.359443 
0.782675 0.360485 -0.448348 
0.382563 0.470243 -0.782935 
0.327598 0.893150 -0.305073 
0.277865 0.316123 -0.898924 
0.161726 0.167830 -0.966021 
0.741143 0.205478 -0.602173 
0.647195 0.530241 -0.502521 
0.477281 0.845841 -0.172541 
0.585834 0.169658 -0.769942 
0.163162 0.892904 -0.446022 
0.154381 0.483649 -0.862412 
0.531247 0.681224 -0.468738 
0.130543 0.971146 -0.261582 
0.378740 0.137893 -0.902165 
0.112621 0.330451 -0.935419 
0.599098 0.696876 -0.334268 
0.099039 0.638220 -0.773858 
0.149206 0.768748 -0.636392 
0.283116 0.631661 -0.719095 
0.827161 0.470815 -0.168301 
0.588057 0.388182 -0.680927 
0.354431 0.771960 -0.520054 
0.732835 0.542653 -0.332568 
0.104380 1.002838 -0.116479 
0.266645 0.956190 -0.144150 
0.678635 0.680179 -0.148123 
0.925148 0.129728 -0.279771 
0.457110 0.303351 -0.818858 
0.827454 0.395943 -0.311303 
0.854804 0.156038 -0.441912 
0.913129 0.275291 -0.173023 
0.870662 0.268490 -0.334814 
0.961331 0.109547 -0.127561 
0.701437 0.375222 -0.563190 
0.446682 0.450237 0.750288 
0.430138 0.800538 0.376352 
0.807395 0.394584 0.367373 
0.324697 0.305426 0.880856 
0.282394 0.908904 0.290411 
0.881229 0.319476 0.253008 
0.942676 0.148343 0.210092 
0.530287 0.622563 0.535893 
0.099951 0.479585 0.861334 
0.739200 0.149251 0.632312 
0.436311 0.148186 0.875958 
0.405242 0.883866 0.177702 
0.836916 0.455470 0.165646 
0.258669 0.133114 0.948051 
0.232222 0.964832 0.137286 
0.912788 0.303335 0.123067 
0.603612 0.144431 0.768216 
0.504760 0.279702 0.797963 
0.302922 0.624979 0.700912 
0.746299 0.606785 0.111650 
0.641299 0.712620 0.165760 
0.569948 0.482466 0.631034 
0.177614 0.755132 0.621448 
0.733064 0.562966 0.293166 
0.604107 0.673983 0.360176 
0.370819 0.715088 0.566550 
0.526605 0.796882 0.217025 
0.089826 1.001475 0.118472 
0.111864 0.117423 0.978961 
0.447956 0.586312 0.646670 
0.138830 0.612880 0.767472 
0.680750 0.492287 0.491558 
0.626601 0.335811 0.674238 
0.152377 0.304963 0.929396 
0.145329 0.959212 0.263208 
0.764603 0.303052 0.525801 
0.825485 0.121628 0.520783 
0.197588 0.869496 0.446595 
0.866996 0.214750 0.396272 
0.245990 0.472313 0.831905 
0.531333 -0.823446 0.351712 
0.338099 -0.391553 0.870881 
0.347838 -0.907172 0.368953 
0.161124 -0.482310 0.875556 
0.514626 -0.176144 0.843570 
0.447457 -0.920005 0.196342 
0.619791 -0.576159 0.585237 
0.270831 -0.188169 0.946353 
0.248843 -0.988525 0.187197 
0.916124 -0.401235 0.168124 
0.776250 -0.428443 0.503544 
0.752389 -0.693013 0.148367 
0.866023 -0.212504 0.460924 
0.949463 -0.205715 0.237902 
0.513355 -0.343447 0.803211 
0.583121 -0.709436 0.480012 
0.629269 -0.810491 0.170924 
0.722866 -0.670689 0.312209 
[...]
POINT_DATA 1108
SCALARS u float 1
LOOKUP_TABLE default
0.026621
0.026210
0.030543
0.030649
0.009095
0.008751
0.020616
0.020686
0.024902
0.025245
0.007349
0.006957
0.030231
0.033254
0.033675
0.031283
0.027171
0.024580
0.025628
0.035484
0.039515
0.040030
0.036829
0.031771
0.026538
0.024300
0.029850
0.033008
0.033073
0.030818
0.027082
0.024602
0.025844
0.035713
0.039496
0.040170
0.036989
0.031814
0.026814
0.024567
0.011805
0.015831
0.020988
0.025683
0.029661
0.031836
0.031940
0.027650
0.023681
0.019117
0.015066
0.011833
0.009246
0.008137
0.011289
0.015659
0.020797
0.025364
0.029357
0.031559
0.031788
0.027530
0.023589
0.019483
0.015197
0.012016
0.009615
0.008372
0.025783
0.024390
0.022226
0.019766
0.017022
0.013577
0.010434
0.009688
0.012823
0.016170
0.019119
0.022162
0.024416
0.025756
0.025573
0.024388
0.022135
0.019737
0.016761
0.013044
0.010127
0.009694
0.012371
0.015942
0.019364
0.022481
0.024741
0.026120
0.026078
0.030475
0.032695
0.031705
0.028370
0.023650
0.018670
0.016296
0.019189
0.031133
0.035991
0.038853
0.037570
0.033432
0.028589
0.022486
0.017293
0.016813
0.025628
0.030001
0.032359
0.031120
0.028359
0.023837
0.018845
0.016297
0.019238
0.031131
0.036051
0.038927
0.037666
0.033675
0.028847
0.022737
0.017434
0.016768
0.022629
0.019338
0.015848
0.012822
0.010224
0.008620
0.008239
0.008118
0.007602
0.007796
0.009119
0.012629
0.016395
0.020110
0.023829
0.026269
0.026970
0.026754
0.022609
0.019412
0.016387
0.013295
0.010355
0.008453
0.008262
0.008377
0.008019
0.007523
0.009285
0.012593
0.016462
0.020251
0.024030
0.026508
0.027116
0.026829
0.020982
0.020930
0.019890
0.018657
0.016559
0.014752
0.013236
0.010102
0.008209
0.007637
0.009058
0.010469
0.011672
0.013754
0.015671
0.017082
0.018539
0.019689
0.021131
0.021140
0.020269
0.018856
0.016724
0.014704
0.012827
0.010015
0.007752
0.007111
0.009102
0.010308
0.012047
0.013688
0.015588
0.017032
0.018494
0.019594
0.021966
0.027299
0.011372
0.022204
0.030159
0.016835
0.022668
0.028277
0.013722
0.015194
0.021284
0.024157
0.023668
0.019639
0.028788
0.036095
0.035731
0.015762
0.019391
0.030800
0.024541
0.031743
0.029354
0.024370
0.021777
0.034726
0.013637
0.019801
0.025338
0.013058
0.017832
0.010190
0.008328
0.014509
0.018625
0.032166
0.017998
0.009863
0.008743
0.022576
0.025117
0.029470
0.018655
0.024453
0.014478
0.011091
0.024793
0.027246
0.025894
0.019594
0.025845
0.017096
0.025463
0.027654
0.014012
0.013822
0.027989
0.020954
0.023499
0.019831
0.033610
0.023200
0.022856
0.030885
0.027824
0.025050
0.030989
0.028479
0.018078
0.031701
0.027492
0.032030
0.030437
0.029069
0.026899
0.019418
0.024117
0.030294
0.014451
0.022654
0.030854
0.028729
0.024809
0.012355
0.022567
0.015069
0.024475
0.033105
0.011289
0.023878
0.031999
0.018927
0.018065
0.017958
0.032516
0.030068
0.023960
0.017299
0.030963
0.028369
0.021176
0.026941
0.026207
0.009319
0.021536
0.014564
0.027741
0.022820
0.010947
0.023362
0.026572
0.024265
0.020420
0.027336
0.014553
0.041520
0.020981
0.040239
0.020653
0.017671
0.041867
0.033068
0.014158
0.038710
0.027781
0.028872
0.036793
0.023886
0.024854
0.022315
0.037954
0.040965
0.037214
0.010875
0.015091
0.033620
0.036162
0.038256
0.032054
0.035120
0.022272
0.037947
0.029067
0.034151
0.031424
0.026422
0.033787
0.027216
0.026566
0.019933
0.017251
0.027100
0.034654
0.022713
0.025118
0.028713
0.018667
0.024498
0.014859
0.011361
0.024629
0.027125
0.025886
0.019739
0.026050
0.017116
0.025141
0.027734
0.014306
0.013805
0.027678
0.021098
0.023713
0.020103
0.033135
0.023197
0.023095
0.030974
0.028000
0.025088
0.030449
0.028042
0.018204
0.031325
0.026944
0.031483
0.029768
0.028752
0.026614
0.019246
0.024158
0.030254
0.013958
0.022350
0.030871
0.028570
0.024608
0.012020
0.022673
0.014604
0.024398
0.032492
0.011025
0.024011
0.031781
0.019037
0.018022
0.018013
0.032083
0.029509
0.023669
0.017399
0.031075
0.028198
0.021115
0.026864
0.026285
0.008918
0.021510
0.014420
0.027390
0.022724
0.010631
0.023199
0.026500
0.024354
0.020334
0.027663
0.014645
0.041185
0.020676
0.039836
0.020094
0.017531
0.041606
0.032720
0.013646
0.038480
0.027531
0.028631
0.036584
0.023712
0.024648
0.022068
0.037592
0.040774
0.036842
0.010378
0.014730
0.033223
0.035776
0.037929
0.031845
0.034678
0.022072
0.037526
0.028562
0.033847
0.031156
0.026155
0.033430
0.026955
0.026211
0.019878
0.016950
0.026854
0.034490
0.021880
0.027670
0.011565
0.022029
0.030587
0.016797
0.022807
0.028111
0.013940
0.015223
0.021007
0.024658
0.023412
0.019506
0.028687
0.036064
0.035176
0.015905
0.019236
0.030453
0.024204
0.031730
0.029286
0.024080
0.021727
0.034654
0.013723
0.020140
0.025286
0.013241
0.018107
0.010454
0.008485
0.014824
0.018682
0.031897
0.018304
0.010016
0.008881
0.034408
0.026927
0.016813
0.019696
0.038507
0.016863
0.036231
0.012147
0.016340
0.034437
0.007985
0.017109
0.029099
0.023396
0.015204
0.030902
0.011648
0.017986
0.039101
0.029743
0.027657
0.040543
0.015791
0.032248
0.014944
0.031747
0.019935
0.038703
0.016721
0.031960
0.021312
0.022043
0.027299
0.031654
0.026137
0.038277
0.023539
0.013972
0.025763
0.016389
0.020627
0.013131
0.022411
0.018697
0.034384
0.018037
0.036268
0.034449
0.037061
0.024382
0.040193
0.028537
0.035900
0.029879
0.017446
0.033446
0.023110
0.014316
0.032805
0.010289
0.010090
0.009097
0.024701
0.018447
0.012118
0.016268
0.030117
0.017712
0.028847
0.010653
0.018325
0.028085
0.008516
0.022347
0.014647
0.012611
0.018860
0.023757
0.015667
0.011866
0.029425
0.020780
0.020852
0.031524
0.021173
0.025308
0.010086
0.021652
0.016569
0.031437
0.022186
0.024868
0.015777
0.014313
0.019942
0.022424
0.017257
0.028447
0.016067
0.018485
0.020390
0.011546
0.018609
0.015368
0.018354
0.015164
0.026250
0.016487
0.028137
0.025800
0.029895
0.017771
0.031702
0.018712
0.025754
0.024283
0.022154
0.015395
0.024569
0.014240
0.026218
0.012608
0.008853
0.010265
0.022061
0.021891
0.015885
0.012643
0.026647
0.010973
0.027034
0.015048
0.008850
0.022695
0.017781
0.028593
0.013388
0.013450
0.031930
0.010875
0.021286
0.012955
0.023853
0.018056
0.013592
0.020013
0.030669
0.010203
0.014081
0.023178
0.011062
0.022273
0.027066
0.008893
0.019663
0.017222
0.024696
0.025332
0.020252
0.027681
0.016269
0.030073
0.010177
0.015049
0.024128
0.011909
0.026566
0.014177
0.030029
0.013435
0.029530
0.019534
0.015443
0.014201
0.024344
0.025884
0.019916
0.023595
0.007587
0.017195
0.028218
0.018615
0.016571
0.016964
0.016781
0.015911
0.011585
0.019721
0.028154
0.008233
0.014676
0.007794
0.015202
0.008870
0.017556
0.011766
0.027347
0.017041
0.031457
0.008094
0.023549
0.017700
0.035333
0.012476
0.009759
0.011644
0.015003
0.007543
0.017195
0.034388
0.015152
0.009846
0.016410
0.007881
0.015940
0.024421
0.023689
0.032746
0.017443
0.025625
0.019807
0.014820
0.015446
0.007974
0.009145
0.029523
0.021792
0.030521
0.012943
0.033629
0.008849
0.021297
0.006940
0.017026
0.011570
0.014586
0.009265
0.013801
0.010918
0.015473
0.018012
0.007945
0.020640
0.011344
0.030160
0.013936
0.027598
0.027075
0.026181
0.020325
0.013255
0.028718
0.016026
0.026980
0.015067
0.026880
0.016508
0.013855
0.020119
0.016908
0.013145
0.012729
0.020389
0.010186
0.013505
0.022964
0.029421
0.031460
0.021802
0.014984
0.022328
0.011677
0.023616
0.030454
0.016500
0.017726
0.022758
0.016851
0.010236
0.008709
0.019753
0.016675
0.020153
0.022795
0.018638
0.027773
0.011231
0.016668
0.015765
0.013040
0.015150
0.010381
0.023728
0.015027
0.025913
0.014969
0.027080
0.029611
0.030589
0.019003
0.021975
0.025695
0.019948
0.023378
0.024114
0.018106
0.010366
0.026629
0.008508
0.007028
0.011640
0.019589
0.025800
0.008254
0.014776
0.007796
0.015316
0.029156
0.008736
0.017656
0.028560
0.011561
0.027473
0.016733
0.008053
0.023732
0.016977
0.035669
0.012574
0.009790
0.011569
0.015115
0.007520
0.017420
0.022609
0.015060
0.009661
0.016537
0.007724
0.016005
0.024487
0.017070
0.024627
0.019502
0.014547
0.015490
0.007895
0.009173
0.030118
0.020923
0.030408
0.012792
0.033548
0.008671
0.021304
0.006935
0.017155
0.011655
0.014727
0.009207
0.013891
0.010794
0.015428
0.018016
0.007549
0.011038
0.020413
0.031349
0.014029
0.022814
0.034828
0.033112
0.034752
0.027274
0.015417
0.019924
0.038827
0.017057
0.036473
0.016432
0.034563
0.017085
0.029397
0.015300
0.023674
0.015361
0.031242
0.011851
0.017609
0.039384
0.030082
0.027895
0.040756
0.015888
0.032547
0.010955
0.032081
0.020175
0.038901
0.016757
0.032106
0.021559
0.013068
0.008663
0.021173
0.027532
0.032020
0.026163
0.038597
0.023815
0.014130
0.026028
0.015660
0.020237
0.013176
0.022673
0.018853
0.034719
0.018258
0.036633
0.034811
0.037258
0.024649
0.040474
0.028802
0.036209
0.030008
0.017477
0.023037
0.033728
0.010199
0.033075
0.008235
0.007344
0.014802
0.024530
0.028220
0.016618
0.011192
0.017719
0.010653
0.028775
0.022414
0.008363
0.026062
0.026171
0.020361
0.023865
0.020867
0.016148
0.031149
0.023002
0.012820
0.015054
0.019394
0.011697
0.016528
0.012418
0.025795
0.019493
0.020966
0.009606
0.018408
0.009538
0.028018
0.026470
0.024295
0.021982
0.022429
0.014708
0.016529
0.026243
0.017889
0.029324
0.026278
0.029625
0.020549
0.020401
0.017543
0.016911
0.013977
0.015002
0.015053
0.016780
0.011270
0.018259
0.017332
0.007995
0.022304
0.019766
0.021525
0.030925
0.018662
0.031595
0.024079
0.029505
0.009041
0.020259
0.028026
0.016766
0.021019
0.008359
0.010802
0.028671
0.011885
0.007647
0.021622
0.028250
0.021894
0.022206
0.026479
0.027666
0.020445
0.024965
0.016465
0.014045
0.037906
0.031559
0.030522
0.028174
0.028065
0.030085
0.027824
0.028795
0.029096
0.024766
0.010662
0.015867
0.022503
0.036195
0.042328
0.025042
0.029890
0.036498
0.029630
0.028010
0.023196
0.017984
0.017272
0.033871
0.025119
0.018163
0.027485
0.027810
0.011221
0.029162
0.028593
0.021080
0.026268
0.008345
0.011715
0.020979
0.016260
0.035113
0.030275
0.026353
0.030065
0.012626
0.012050
0.009406
0.021345
0.033109
0.009952
0.015323
0.027164
0.030518
0.029527
0.027460
0.010291
0.017475
0.024704
0.013371
0.011068
0.024655
0.025716
0.015304
0.019914
0.024868
0.028383
0.026284
0.031151
0.032531
0.040412
0.035069
0.037112
0.022561
0.031815
0.038791
0.027026
0.017570
0.021575
0.014859
0.009922
0.011370
0.032606
0.015839
0.027244
0.010750
