# vtk DataFile Version 2.0
Unstructured Grid Example
ASCII
DATASET UNSTRUCTURED_GRID
POINTS 1108 float
0.996470 0.002523 0.000997 
-0.996472 -0.002516 -0.000978 
0.002457 1.003487 -0.003389 
-0.002514 -1.003553 0.003400 
0.001009 -0.003346 1.000018 
-0.000992 0.003396 -1.000041 
1.196675 0.001696 0.000649 
-1.196620 -0.001629 -0.000702 
0.001691 1.203296 -0.002250 
-0.001613 -1.203373 0.002224 
0.000691 -0.002245 1.200006 
-0.000712 0.002243 -1.200046 
0.978340 0.197860 0.000340 
0.922679 0.385831 -0.000380 
0.831448 0.559223 -0.001011 
0.708057 0.711384 -0.001655 
0.557201 0.836143 -0.002348 
0.384763 0.928529 -0.002769 
0.197385 0.985038 -0.003138 
-0.192346 0.983173 -0.003513 
-0.379458 0.925001 -0.003517 
-0.551766 0.831358 -0.003361 
-0.702765 0.706058 -0.003077 
-0.826724 0.553875 -0.002704 
-0.919124 0.380596 -0.002178 
-0.976459 0.192785 -0.001596 
-0.978369 -0.197858 -0.000346 
-0.922728 -0.385823 0.000348 
-0.831474 -0.559198 0.001002 
-0.708054 -0.711333 0.001642 
-0.557192 -0.836171 0.002257 
-0.384757 -0.928618 0.002719 
-0.197404 -0.985111 0.003134 
0.192329 -0.983202 0.003513 
0.379449 -0.925055 0.003541 
0.551776 -0.831393 0.003387 
0.702737 -0.706039 0.003131 
0.826747 -0.553858 0.002744 
0.919148 -0.380570 0.002222 
0.976529 -0.192772 0.001625 
0.000498 -0.198911 0.982146 
-0.000029 -0.387197 0.926476 
-0.000606 -0.560710 0.835001 
-0.001011 -0.712805 0.711082 
-0.001485 -0.837350 0.559745 
-0.001885 -0.929429 0.386700 
-0.002233 -0.985449 0.198773 
-0.002658 -0.982891 -0.191855 
-0.002702 -0.924559 -0.379464 
-0.002658 -0.830897 -0.552392 
-0.002472 -0.705616 -0.704001 
-0.002244 -0.553441 -0.828584 
-0.001865 -0.380100 -0.921626 
-0.001469 -0.192101 -0.979557 
-0.000493 0.198938 -0.982175 
0.000033 0.387207 -0.926457 
0.000546 0.560725 -0.834999 
0.001031 0.712781 -0.711145 
0.001496 0.837309 -0.559757 
0.001897 0.929382 -0.386694 
0.002228 0.985421 -0.198774 
0.002626 0.982857 0.191864 
0.002637 0.924477 0.379519 
0.002558 0.830889 0.552395 
0.002427 0.705612 0.704060 
0.002133 0.553469 0.828650 
0.001883 0.380143 0.921635 
0.001490 0.192130 0.979547 
0.977779 0.001748 0.195916 
0.921539 0.000982 0.383414 
0.829885 0.000126 0.556179 
0.706092 -0.000584 0.707686 
0.555167 -0.001427 0.832093 
0.382835 -0.002180 0.924395 
0.195662 -0.002816 0.981118 
-0.193608 -0.003736 0.980335 
-0.380720 -0.004056 0.923025 
-0.552954 -0.004133 0.830193 
-0.703933 -0.004095 0.705607 
-0.827884 -0.003942 0.554006 
-0.920052 -0.003561 0.381262 
-0.977000 -0.003088 0.193901 
-0.977765 -0.001745 -0.195894 
-0.921516 -0.000972 -0.383381 
-0.829805 -0.000220 -0.556158 
-0.706045 0.000537 -0.707733 
-0.555081 0.001354 -0.832090 
-0.382814 0.002202 -0.924361 
-0.195638 0.002857 -0.981084 
0.193701 0.003731 -0.980456 
0.380735 0.004072 -0.923112 
0.552943 0.004182 -0.830248 
0.703898 0.004150 -0.705604 
0.827818 0.003986 -0.553979 
0.920051 0.003607 -0.381222 
0.977021 0.003095 -0.193851 
1.182816 0.189398 0.000271 
1.139954 0.372762 -0.000063 
1.068946 0.547194 -0.000401 
0.971499 0.708323 -0.000746 
0.849961 0.852053 -0.001111 
0.707204 0.974944 -0.001519 
0.546766 1.073753 -0.001674 
0.372703 1.145727 -0.001966 
0.189439 1.189288 -0.002102 
-0.186023 1.187629 -0.002306 
-0.368863 1.142544 -0.002348 
-0.542339 1.069330 -0.002316 
-0.702287 0.970018 -0.002249 
-0.844861 0.847129 -0.002091 
-0.966547 0.703522 -0.001853 
-1.064616 0.542791 -0.001563 
-1.136702 0.369024 -0.001369 
-1.181061 0.186057 -0.001035 
-1.182839 -0.189385 -0.000282 
-1.139961 -0.372792 0.000093 
-1.068985 -0.547188 0.000433 
-0.971493 -0.708340 0.000759 
-0.849925 -0.852047 0.001118 
-0.707189 -0.974954 0.001507 
-0.546783 -1.073787 0.001673 
-0.372725 -1.145838 0.001961 
-0.189473 -1.189367 0.002112 
0.186027 -1.187644 0.002332 
0.368873 -1.142576 0.002355 
0.542362 -1.069355 0.002310 
0.702310 -0.970025 0.002236 
0.844848 -0.847089 0.002089 
0.966543 -0.703485 0.001869 
1.064634 -0.542766 0.001584 
1.136733 -0.369004 0.001384 
1.181118 -0.186014 0.001035 
-0.001748 -1.187366 -0.185698 
-0.001770 -1.142158 -0.368742 
-0.001783 -1.068956 -0.542445 
-0.001773 -0.969733 -0.702722 
-0.001636 -0.846857 -0.845808 
-0.001439 -0.703309 -0.968049 
-0.001337 -0.542706 -1.066600 
-0.001154 -0.368764 -1.139238 
-0.000931 -0.185657 -1.184112 
-0.000331 0.190308 -1.186455 
-0.000137 0.373970 -1.143597 
0.000211 0.548661 -1.072520 
0.000409 0.709953 -0.974723 
0.000782 0.853663 -0.852651 
0.000951 0.976411 -0.709365 
0.001169 1.074905 -0.548467 
0.001354 1.146463 -0.373955 
0.001518 1.189654 -0.190340 
0.001723 1.187301 0.185712 
0.001775 1.142066 0.368740 
0.001856 1.068959 0.542396 
0.001734 0.969761 0.702707 
0.001609 0.846900 0.845823 
0.001502 0.703296 0.968100 
0.001306 0.542661 1.066683 
0.001145 0.368733 1.139251 
0.000915 0.185648 1.184115 
0.000377 -0.190334 1.186397 
0.000109 -0.373966 1.143622 
-0.000146 -0.548672 1.072530 
-0.000349 -0.709935 0.974597 
-0.000770 -0.853677 0.852609 
-0.000959 -0.976427 0.709377 
-0.001162 -1.074945 0.548485 
-0.001343 -1.146501 0.373954 
-0.001516 -1.189692 0.190337 
-1.181590 -0.001984 0.186720 
-1.137534 -0.002219 0.369508 
-1.065635 -0.002490 0.543243 
-0.967576 -0.002675 0.703680 
-0.845755 -0.002775 0.846911 
-0.703087 -0.002750 0.969292 
-0.543039 -0.002735 1.067997 
-0.369477 -0.002635 1.140450 
-0.186765 -0.002501 1.184882 
0.188166 -0.001947 1.185522 
0.371007 -0.001569 1.141782 
0.544775 -0.001211 1.069754 
0.705038 -0.000835 0.971198 
0.847807 -0.000504 0.848895 
0.969559 0.000002 0.705694 
1.067477 0.000439 0.545064 
1.138880 0.000907 0.371047 
1.182338 0.001247 0.188130 
1.181595 0.002011 -0.186738 
1.137530 0.002267 -0.369523 
1.065576 0.002515 -0.543236 
0.967533 0.002697 -0.703657 
0.845735 0.002791 -0.846898 
0.703096 0.002749 -0.969302 
0.543071 0.002719 -1.068054 
0.369553 0.002646 -1.140572 
0.186697 0.002485 -1.184903 
-0.188178 0.001909 -1.185506 
-0.370991 0.001563 -1.141744 
-0.544741 0.001188 -1.069752 
-0.704981 0.000966 -0.971322 
-0.847750 0.000452 -0.848900 
-0.969516 -0.000026 -0.705640 
-1.067434 -0.000423 -0.545007 
-1.138860 -0.000917 -0.371037 
-1.182315 -0.001234 -0.188146 
0.813557 -0.393281 -0.411772 
0.413149 -0.791333 -0.439142 
0.390772 -0.373805 -0.834793 
0.887877 -0.295137 -0.334259 
0.292957 -0.893775 -0.331104 
0.677535 -0.332078 -0.646186 
0.553174 -0.627142 -0.535971 
0.864930 -0.478468 -0.105799 
0.177764 -0.616996 -0.760283 
0.609362 -0.167507 -0.768774 
0.869189 -0.152687 -0.458325 
0.203482 -0.851058 -0.476901 
0.949408 -0.135271 -0.264143 
0.799003 -0.289121 -0.514705 
0.678581 -0.640947 -0.340011 
0.460310 -0.861563 -0.198152 
0.624584 -0.755597 -0.171429 
0.522602 -0.473596 -0.699486 
0.793105 -0.138427 -0.584072 
0.553051 -0.750965 -0.344778 
0.981636 -0.120104 -0.111989 
0.767119 -0.614801 -0.148897 
0.149773 -0.949105 -0.274170 
0.933427 -0.303924 -0.156823 
0.731102 -0.466288 -0.483340 
0.265702 -0.951913 -0.148815 
0.546094 -0.296819 -0.776088 
0.330311 -0.702251 -0.621754 
0.829048 -0.465642 -0.286924 
0.495253 -0.177549 -0.845376 
0.144695 -0.756102 -0.631826 
0.192438 -0.477636 -0.851762 
0.174742 -0.314793 -0.928999 
0.347879 -0.553068 -0.749204 
0.633721 -0.477622 -0.596772 
0.121804 -0.986267 -0.121908 
0.444178 -0.598297 -0.657168 
0.326832 -0.212125 -0.917051 
0.203158 -0.129248 -0.968398 
0.502603 0.589015 -0.641299 
0.506381 0.790832 -0.362643 
0.807385 0.377356 -0.455930 
0.400727 0.474289 -0.789608 
0.352850 0.892277 -0.305928 
0.290613 0.318017 -0.905648 
0.169423 0.167692 -0.972606 
0.759555 0.220926 -0.610638 
0.672868 0.543318 -0.509780 
0.504886 0.852742 -0.173668 
0.600124 0.180851 -0.778707 
0.185697 0.884294 -0.445746 
0.169339 0.480250 -0.866544 
0.557512 0.690172 -0.474269 
0.154164 0.960150 -0.260176 
0.388740 0.143840 -0.910351 
0.123547 0.327290 -0.940449 
0.627340 0.709048 -0.338654 
0.116273 0.631142 -0.775453 
0.169570 0.761554 -0.637304 
0.302592 0.631020 -0.723374 
0.856411 0.490300 -0.172189 
0.608757 0.399000 -0.689500 
0.378163 0.773291 -0.523218 
0.761196 0.559238 -0.338336 
0.128039 0.990503 -0.114649 
0.291684 0.952202 -0.143428 
0.708744 0.695431 -0.150446 
0.944036 0.150569 -0.285035 
0.472708 0.310467 -0.827286 
0.854142 0.414681 -0.317328 
0.874003 0.174704 -0.449081 
0.937714 0.296311 -0.177230 
0.894127 0.287930 -0.341097 
0.979919 0.131584 -0.131195 
0.724587 0.389539 -0.571673 
0.461824 0.459491 0.757485 
0.454427 0.807281 0.380901 
0.831200 0.413762 0.371618 
0.333515 0.312401 0.888124 
0.306009 0.907969 0.293592 
0.904703 0.340015 0.255164 
0.960829 0.170579 0.210452 
0.552481 0.633596 0.542205 
0.110356 0.479070 0.867642 
0.751956 0.166792 0.636827 
0.442873 0.158806 0.882047 
0.431039 0.888023 0.180470 
0.864522 0.475630 0.167219 
0.262439 0.139449 0.954263 
0.256297 0.960143 0.139356 
0.937049 0.324892 0.123307 
0.612971 0.159114 0.773418 
0.515972 0.291095 0.804757 
0.319666 0.628625 0.707191 
0.775813 0.624505 0.112936 
0.670012 0.727083 0.168164 
0.589257 0.495313 0.637977 
0.195196 0.753119 0.625967 
0.759953 0.580443 0.296872 
0.630272 0.687547 0.365007 
0.391312 0.720438 0.572387 
0.553646 0.806858 0.220283 
0.112877 0.989286 0.120505 
0.113378 0.120763 0.985426 
0.466774 0.595201 0.653418 
0.152829 0.611801 0.772997 
0.703415 0.508263 0.497459 
0.642665 0.350483 0.680681 
0.159049 0.307337 0.936213 
0.167943 0.951190 0.265620 
0.783678 0.320822 0.531239 
0.838797 0.141248 0.524058 
0.218534 0.865909 0.450314 
0.885281 0.234881 0.399229 
0.257962 0.475518 0.838760 
0.509197 -0.790341 0.345278 
0.329077 -0.376160 0.870019 
0.325133 -0.877501 0.363070 
0.149111 -0.469955 0.875382 
0.512827 -0.160635 0.844777 
0.423723 -0.886769 0.191284 
0.604937 -0.548974 0.579462 
0.266758 -0.177739 0.949291 
0.225229 -0.960489 0.182893 
0.908828 -0.372802 0.164773 
0.766778 -0.401761 0.499445 
0.733994 -0.659437 0.143940 
0.866058 -0.188673 0.459504 
0.951550 -0.180365 0.235756 
0.506021 -0.324955 0.801607 
0.564232 -0.678955 0.473381 
0.607448 -0.775324 0.165870 
0.704564 -0.638224 0.306720 
[...]
POINT_DATA 1108
SCALARS u float 1
LOOKUP_TABLE default
0.004452
0.004443
0.005448
0.005523
0.003495
0.003538
0.003788
0.003817
0.004335
0.004350
0.002349
0.002354
0.003710
0.003390
0.003790
0.004684
0.005479
0.005798
0.005762
0.005057
0.004902
0.005077
0.005424
0.005719
0.005632
0.005155
0.003690
0.003362
0.003764
0.004631
0.005461
0.005844
0.005821
0.005080
0.004938
0.005087
0.005480
0.005725
0.005638
0.005112
0.004086
0.005207
0.006266
0.007021
0.007362
0.007105
0.006348
0.004687
0.004258
0.004182
0.004241
0.004230
0.003903
0.003550
0.004120
0.005206
0.006271
0.007041
0.007339
0.007069
0.006327
0.004647
0.004163
0.004119
0.004172
0.004113
0.003878
0.003538
0.003574
0.002641
0.001702
0.001307
0.001609
0.002245
0.002893
0.004045
0.004587
0.005055
0.005394
0.005553
0.005417
0.005028
0.003579
0.002649
0.001779
0.001344
0.001567
0.002258
0.002925
0.003995
0.004578
0.005087
0.005457
0.005635
0.005459
0.005029
0.002949
0.002345
0.002453
0.003147
0.003963
0.004773
0.005232
0.005225
0.004886
0.003739
0.003313
0.003374
0.003877
0.004448
0.005001
0.005245
0.005094
0.004603
0.002923
0.002368
0.002448
0.003164
0.003947
0.004771
0.005268
0.005326
0.004968
0.003762
0.003325
0.003353
0.003851
0.004469
0.005023
0.005246
0.005078
0.004568
0.003425
0.002871
0.002955
0.003345
0.003587
0.003726
0.003596
0.003111
0.002524
0.002883
0.003920
0.005100
0.006055
0.006632
0.006952
0.006881
0.006217
0.005363
0.003364
0.002849
0.003038
0.003327
0.003544
0.003721
0.003550
0.003120
0.002524
0.002888
0.003931
0.005112
0.005956
0.006615
0.006973
0.006923
0.006246
0.005393
0.004261
0.004538
0.004621
0.004522
0.004243
0.003871
0.003465
0.003069
0.002700
0.002019
0.001661
0.001328
0.000965
0.000953
0.001309
0.001806
0.002564
0.003172
0.004265
0.004560
0.004682
0.004574
0.004271
0.003861
0.003416
0.003015
0.002708
0.001982
0.001643
0.001307
0.001147
0.000973
0.001339
0.001836
0.002585
0.003191
0.007024
0.006061
0.005909
0.006643
0.005131
0.006862
0.006887
0.006288
0.005340
0.005933
0.006273
0.005099
0.005873
0.006829
0.006884
0.005481
0.006044
0.006813
0.006258
0.006429
0.005315
0.006315
0.004646
0.006144
0.007253
0.004845
0.006287
0.006070
0.006885
0.005553
0.005051
0.005172
0.004661
0.006164
0.007128
0.004835
0.006626
0.004983
0.004245
0.006433
0.006969
0.004752
0.005975
0.007237
0.005116
0.004238
0.004914
0.005683
0.006482
0.004884
0.007594
0.006021
0.006686
0.007071
0.004628
0.004967
0.006250
0.006889
0.007467
0.006978
0.004156
0.005331
0.007506
0.005195
0.006255
0.006613
0.005268
0.004635
0.005097
0.004456
0.004863
0.003952
0.004414
0.004302
0.005019
0.001512
0.003311
0.001934
0.002019
0.004051
0.002429
0.002955
0.002026
0.003452
0.000843
0.001536
0.004611
0.002892
0.002374
0.004983
0.002981
0.000773
0.001046
0.002490
0.003671
0.003942
0.001264
0.003165
0.002695
0.002826
0.002542
0.004105
0.005024
0.003012
0.001865
0.003317
0.001535
0.000649
0.002922
0.004319
0.001024
0.001457
0.003536
0.001895
0.002663
0.004760
0.004310
0.005611
0.005394
0.002556
0.004956
0.003872
0.003373
0.005570
0.004803
0.003244
0.004878
0.002781
0.003935
0.003408
0.004431
0.004712
0.004302
0.003567
0.004368
0.006623
0.006603
0.005457
0.004963
0.004839
0.002240
0.006146
0.004450
0.003770
0.004111
0.003148
0.005740
0.006258
0.005369
0.002266
0.003120
0.003758
0.005627
0.006381
0.006976
0.004718
0.005914
0.007310
0.005071
0.004327
0.004831
0.005603
0.006495
0.004832
0.007642
0.005973
0.006569
0.007095
0.004603
0.004982
0.006219
0.006861
0.007431
0.006911
0.004169
0.005262
0.007422
0.005127
0.006314
0.006639
0.005192
0.004619
0.005020
0.004404
0.004795
0.003978
0.004407
0.004279
0.004963
0.001593
0.003398
0.001964
0.002015
0.004093
0.002331
0.002934
0.002103
0.003475
0.000921
0.001518
0.004662
0.002919
0.002392
0.005055
0.002953
0.000794
0.001062
0.002534
0.003630
0.003891
0.001298
0.003279
0.002723
0.002912
0.002581
0.004166
0.005069
0.003054
0.001951
0.003364
0.001661
0.000681
0.002974
0.004371
0.001158
0.001513
0.003574
0.001880
0.002612
0.004764
0.004348
0.005601
0.005453
0.002560
0.004943
0.003878
0.003421
0.005546
0.004798
0.003259
0.004848
0.002842
0.003966
0.003393
0.004387
0.004731
0.004241
0.003599
0.004403
0.006621
0.006591
0.005466
0.004960
0.004846
0.002259
0.006145
0.004492
0.003766
0.004102
0.003157
0.005737
0.006318
0.005349
0.002265
0.003136
0.003796
0.005597
0.006957
0.005975
0.005877
0.006587
0.005118
0.006779
0.006805
0.006285
0.005231
0.005873
0.006202
0.004999
0.005868
0.006739
0.006796
0.005416
0.005908
0.006740
0.006169
0.006283
0.005343
0.006280
0.004610
0.006123
0.007163
0.004802
0.006235
0.005980
0.006860
0.005531
0.004964
0.005102
0.004639
0.006082
0.007042
0.004774
0.006541
0.005003
0.004273
0.002755
0.003298
0.003714
0.003367
0.004157
0.003618
0.004560
0.003244
0.004310
0.004066
0.002713
0.001651
0.005620
0.005198
0.001895
0.006236
0.001651
0.005358
0.003069
0.002958
0.004140
0.003195
0.002749
0.005760
0.004380
0.002951
0.004358
0.003519
0.003468
0.005187
0.003405
0.002527
0.004525
0.003843
0.002630
0.004142
0.002502
0.001354
0.006488
0.002121
0.004660
0.001365
0.006006
0.001941
0.005339
0.002669
0.005039
0.003245
0.003565
0.003559
0.003465
0.002420
0.003480
0.004512
0.003969
0.004566
0.002136
0.002683
0.004110
0.002156
0.003756
0.002195
0.005416
0.005183
0.004530
0.006769
0.002871
0.006613
0.003000
0.003683
0.005817
0.002964
0.003032
0.003274
0.007049
0.006150
0.007302
0.003573
0.003176
0.005765
0.004235
0.006285
0.005696
0.003275
0.006926
0.003685
0.004739
0.005428
0.006186
0.002666
0.006125
0.003647
0.004590
0.006080
0.004073
0.004563
0.006072
0.003362
0.007020
0.007080
0.003721
0.005459
0.003402
0.006653
0.003456
0.007342
0.003160
0.007321
0.003060
0.005288
0.004232
0.006532
0.003091
0.006375
0.004401
0.003553
0.005315
0.006880
0.003700
0.003569
0.004892
0.003080
0.003949
0.002903
0.000521
0.001564
0.002606
0.001512
0.001402
0.001866
0.001907
0.003323
0.001732
0.002484
0.003852
0.002595
0.002224
0.002153
0.002229
0.002724
0.004147
0.002531
0.000825
0.000675
0.000832
0.001161
0.001919
0.002650
0.002548
0.000923
0.001308
0.001784
0.002416
0.002256
0.002201
0.001804
0.002100
0.001425
0.001284
0.001138
0.001374
0.003142
0.003004
0.002171
0.002972
0.002769
0.003723
0.001994
0.001708
0.001919
0.001542
0.000565
0.000597
0.001114
0.001136
0.001083
0.000956
0.003044
0.002078
0.001538
0.001612
0.003250
0.000806
0.004227
0.002883
0.004405
0.006503
0.006322
0.004227
0.004629
0.006153
0.003950
0.005834
0.003127
0.005028
0.005166
0.005982
0.004776
0.005297
0.004566
0.006004
0.003794
0.004274
0.006416
0.005831
0.004657
0.005666
0.003998
0.005829
0.003690
0.006679
0.003910
0.005552
0.003177
0.005301
0.005321
0.003390
0.003203
0.005684
0.006060
0.006704
0.006268
0.006742
0.005687
0.004289
0.005383
0.004615
0.004907
0.004208
0.004953
0.005410
0.006598
0.004852
0.006512
0.005688
0.005358
0.004955
0.006210
0.006317
0.006822
0.004576
0.002669
0.006724
0.005920
0.003289
0.004775
0.003078
0.003485
0.002104
0.001029
0.001673
0.001610
0.003314
0.001920
0.003455
0.002424
0.004331
0.002155
0.000493
0.000655
0.002319
0.002466
0.001142
0.002913
0.000833
0.002926
0.001986
0.002295
0.004091
0.002746
0.001860
0.001190
0.001300
0.001931
0.004321
0.003419
0.002480
0.001320
0.002463
0.001597
0.000617
0.001677
0.001261
0.000861
0.002317
0.001102
0.002814
0.000842
0.000993
0.002148
0.000604
0.002988
0.000829
0.002021
0.001287
0.002637
0.003033
0.003094
0.001712
0.003500
0.001817
0.001173
0.004072
0.003033
0.000667
0.001831
0.001764
0.003880
0.002055
0.002100
0.006573
0.006414
0.004506
0.004612
0.006198
0.003928
0.005850
0.003542
0.003087
0.005022
0.003199
0.005258
0.006090
0.004843
0.004648
0.006030
0.003907
0.004210
0.006492
0.005868
0.004655
0.005731
0.004008
0.005842
0.003661
0.006761
0.003867
0.005582
0.003156
0.005285
0.005470
0.005782
0.006278
0.006814
0.006354
0.006801
0.005722
0.004362
0.005472
0.004753
0.005576
0.004266
0.004970
0.005488
0.006642
0.004880
0.006538
0.005741
0.005419
0.004949
0.006275
0.006381
0.006909
0.004560
0.002661
0.005998
0.006823
0.004505
0.004807
0.003035
0.003536
0.003214
0.002784
0.003281
0.003363
0.003323
0.004172
0.003588
0.004581
0.004270
0.004084
0.001643
0.005631
0.001986
0.005184
0.001855
0.006252
0.001733
0.005212
0.003076
0.002957
0.004136
0.003182
0.002718
0.005778
0.002277
0.002964
0.004348
0.003527
0.003438
0.005209
0.003564
0.004081
0.002212
0.002451
0.004555
0.003846
0.002624
0.004155
0.002483
0.001379
0.006494
0.002564
0.004493
0.001424
0.005990
0.001924
0.005351
0.002619
0.005054
0.003257
0.003540
0.003543
0.003474
0.002422
0.003512
0.004538
0.003942
0.002119
0.004580
0.002901
0.004129
0.002929
0.002497
0.006473
0.004458
0.002967
0.007114
0.004045
0.006703
0.003497
0.002927
0.006156
0.003303
0.003332
0.005214
0.003299
0.003247
0.005793
0.003179
0.003223
0.003642
0.006051
0.007184
0.007306
0.005689
0.006237
0.003068
0.003362
0.005533
0.007001
0.004427
0.005900
0.002793
0.003587
0.004665
0.003564
0.004523
0.005432
0.004487
0.006946
0.004866
0.003520
0.004092
0.003123
0.004119
0.003637
0.006251
0.003505
0.006759
0.003543
0.007030
0.006627
0.007333
0.005030
0.006469
0.005263
0.002689
0.005368
0.004035
0.005944
0.003084
0.007060
0.002613
0.003821
0.002625
0.003147
0.006062
0.002818
0.004052
0.005558
0.004250
0.004483
0.005296
0.002776
0.003339
0.004725
0.007450
0.003472
0.000525
0.004427
0.004564
0.006356
0.000506
0.006017
0.002529
0.005887
0.006562
0.005485
0.006870
0.003651
0.004646
0.005743
0.004675
0.004005
0.003360
0.003242
0.003984
0.005043
0.004916
0.005507
0.004063
0.003308
0.005501
0.003696
0.005284
0.005866
0.001995
0.004336
0.003264
0.004259
0.001767
0.005426
0.005375
0.003251
0.006384
0.007238
0.002638
0.000857
0.004528
0.004904
0.007093
0.006139
0.006780
0.004609
0.006125
0.004649
0.005866
0.006460
0.005024
0.007465
0.003974
0.003535
0.002307
0.005453
0.003593
0.002253
0.003149
0.003537
0.002179
0.004204
0.003966
0.003680
0.000738
0.001928
0.004332
0.005528
0.004654
0.004804
0.002321
0.003861
0.004207
0.005573
0.005204
0.005728
0.006184
0.005757
0.006041
0.005846
0.005902
0.006950
0.005203
0.004715
0.005408
0.005409
0.003147
0.003641
0.001735
