# vtk DataFile Version 2.0
Unstructured Grid Example
ASCII
DATASET UNSTRUCTURED_GRID
POINTS 1108 float
0.994980 -0.006506 0.001068 
-0.995059 0.006414 -0.001004 
-0.006479 1.006728 -0.001773 
0.006476 -1.006773 0.001790 
0.001061 -0.001726 0.998022 
-0.001083 0.001794 -0.998260 
1.195288 -0.004298 0.000708 
-1.195292 0.004342 -0.000665 
-0.004292 1.206359 -0.001106 
0.004382 -1.206418 0.001168 
0.000686 -0.001150 1.198145 
-0.000675 0.001114 -1.198270 
0.973594 0.189058 0.000659 
0.915178 0.377087 0.000320 
0.822158 0.550759 -0.000016 
0.698066 0.703522 -0.000470 
0.547294 0.829968 -0.000879 
0.375219 0.925034 -0.001218 
0.188324 0.984734 -0.001501 
-0.201469 0.989595 -0.001920 
-0.389046 0.934207 -0.002033 
-0.561368 0.842311 -0.002027 
-0.711819 0.717374 -0.001948 
-0.834491 0.564807 -0.001829 
-0.924392 0.390767 -0.001622 
-0.978524 0.202182 -0.001344 
-0.973701 -0.189111 -0.000623 
-0.915248 -0.377122 -0.000349 
-0.822338 -0.550818 0.000055 
-0.698230 -0.703505 0.000497 
-0.547338 -0.829877 0.000868 
-0.375191 -0.924910 0.001201 
-0.188266 -0.984755 0.001541 
0.201525 -0.989633 0.001967 
0.389089 -0.934168 0.002063 
0.561412 -0.842328 0.002075 
0.711916 -0.717378 0.001982 
0.834496 -0.564816 0.001849 
0.924464 -0.390840 0.001669 
0.978553 -0.202267 0.001407 
0.002352 -0.197634 0.979561 
0.003485 -0.386161 0.923679 
0.004529 -0.560200 0.832322 
0.005349 -0.712811 0.708766 
0.005987 -0.838182 0.557650 
0.006373 -0.931133 0.384912 
0.006637 -0.987916 0.197076 
0.006138 -0.986590 -0.193448 
0.005575 -0.928405 -0.381020 
0.004751 -0.834560 -0.553758 
0.003757 -0.708982 -0.705020 
0.002699 -0.556334 -0.829082 
0.001451 -0.382472 -0.921403 
0.000144 -0.193994 -0.978507 
-0.002273 0.197547 -0.979715 
-0.003444 0.386132 -0.923884 
-0.004500 0.560148 -0.832306 
-0.005289 0.712746 -0.708703 
-0.005917 0.838126 -0.557615 
-0.006314 0.931078 -0.384875 
-0.006576 0.987913 -0.197054 
-0.006096 0.986600 0.193524 
-0.005543 0.928438 0.381134 
-0.004791 0.834716 0.553760 
-0.003782 0.709057 0.705040 
-0.002788 0.556367 0.829107 
-0.001520 0.382547 0.921305 
-0.000179 0.194103 0.978380 
0.976359 -0.006667 0.195695 
0.920222 -0.006651 0.382806 
0.828575 -0.006277 0.555277 
0.705081 -0.005781 0.706534 
0.554352 -0.005084 0.830611 
0.382202 -0.004024 0.922681 
0.195355 -0.002830 0.979214 
-0.193303 -0.000353 0.978382 
-0.379926 0.000807 0.921109 
-0.552099 0.002227 0.828584 
-0.703013 0.003275 0.704292 
-0.826778 0.004357 0.553002 
-0.918776 0.005228 0.380590 
-0.975591 0.005914 0.193569 
-0.976376 0.006605 -0.195627 
-0.920199 0.006639 -0.382738 
-0.828532 0.006222 -0.555211 
-0.705034 0.005751 -0.706503 
-0.554243 0.004983 -0.830679 
-0.382237 0.003894 -0.922822 
-0.195450 0.002833 -0.979451 
0.193208 0.000503 -0.978481 
0.380027 -0.000821 -0.921216 
0.552114 -0.002174 -0.828650 
0.702935 -0.003300 -0.704273 
0.826667 -0.004377 -0.552974 
0.918745 -0.005327 -0.380548 
0.975591 -0.006041 -0.193467 
1.178414 0.183338 0.000519 
1.133036 0.366116 0.000286 
1.060360 0.539762 0.000061 
0.962268 0.700420 -0.000155 
0.840771 0.844317 -0.000267 
0.698578 0.967967 -0.000544 
0.539094 1.068291 -0.000710 
0.366049 1.142758 -0.000862 
0.183431 1.189249 -0.001040 
-0.192369 1.193643 -0.001208 
-0.375979 1.151118 -0.001361 
-0.550637 1.079706 -0.001353 
-0.711275 0.980795 -0.001435 
-0.853812 0.857400 -0.001290 
-0.975022 0.713094 -0.001199 
-1.071695 0.551230 -0.001146 
-1.141420 0.376103 -0.001023 
-1.182834 0.192289 -0.000894 
-1.178537 -0.183404 -0.000504 
-1.133127 -0.366250 -0.000218 
-1.060458 -0.539800 -0.000032 
-0.962394 -0.700568 0.000164 
-0.840701 -0.844457 0.000287 
-0.698510 -0.967987 0.000584 
-0.539053 -1.068213 0.000720 
-0.366034 -1.142690 0.000895 
-0.183428 -1.189278 0.001003 
0.192381 -1.193632 0.001231 
0.376042 -1.151107 0.001356 
0.550660 -1.079715 0.001388 
0.711306 -0.980810 0.001447 
0.853862 -0.857455 0.001316 
0.975090 -0.713147 0.001219 
1.071743 -0.551292 0.001167 
1.141487 -0.376142 0.001041 
1.182861 -0.192283 0.000915 
0.004161 -1.190857 -0.186953 
0.003881 -1.145822 -0.370162 
0.003519 -1.072578 -0.544021 
0.003156 -0.973037 -0.704317 
0.002525 -0.849762 -0.847035 
0.001852 -0.705805 -0.968935 
0.001280 -0.544622 -1.066992 
0.000643 -0.370297 -1.138881 
0.000066 -0.187024 -1.182966 
-0.001447 0.189390 -1.184221 
-0.002008 0.372819 -1.141104 
-0.002565 0.547670 -1.069962 
-0.003061 0.709095 -0.972430 
-0.003451 0.853324 -0.850595 
-0.003982 0.976571 -0.707810 
-0.004114 1.075840 -0.547226 
-0.004263 1.148214 -0.372833 
-0.004361 1.192134 -0.189339 
-0.004166 1.190841 0.186922 
-0.003888 1.145852 0.370207 
-0.003504 1.072813 0.543930 
-0.003229 0.973204 0.704334 
-0.002572 0.849841 0.847096 
-0.001741 0.705817 0.968905 
-0.001295 0.544626 1.066992 
-0.000674 0.370282 1.138807 
-0.000069 0.186965 1.182848 
0.001389 -0.189172 1.184022 
0.002006 -0.372881 1.140981 
0.002618 -0.547609 1.069951 
0.003085 -0.709106 0.972424 
0.003445 -0.853362 0.850649 
0.004014 -0.976616 0.707842 
0.004144 -1.075902 0.547257 
0.004295 -1.148248 0.372837 
0.004384 -1.192143 0.189355 
-1.180264 0.004046 0.186431 
-1.136272 0.003777 0.369027 
-1.064471 0.003288 0.542534 
-0.966458 0.002902 0.702838 
-0.844758 0.002174 0.845767 
-0.702270 0.001540 0.967776 
-0.542119 0.000944 1.066216 
-0.369024 0.000252 1.138700 
-0.186511 -0.000408 1.183013 
0.187920 -0.001822 1.183713 
0.370615 -0.002498 1.139977 
0.544131 -0.003005 1.068133 
0.704249 -0.003333 0.969873 
0.846874 -0.003866 0.847722 
0.968535 -0.004256 0.704667 
1.066131 -0.004316 0.544371 
1.137584 -0.004436 0.370593 
1.181004 -0.004437 0.187935 
1.180202 -0.004039 -0.186416 
1.136193 -0.003762 -0.368979 
1.064328 -0.003279 -0.542500 
0.966365 -0.002850 -0.702797 
0.844741 -0.002179 -0.845699 
0.702322 -0.001604 -0.967779 
0.542157 -0.000897 -1.066342 
0.368917 -0.000210 -1.138808 
0.186614 0.000258 -1.183098 
-0.187909 0.001761 -1.183899 
-0.370632 0.002624 -1.140217 
-0.544190 0.002986 -1.068198 
-0.704369 0.003487 -0.969845 
-0.846871 0.003832 -0.847681 
-0.968505 0.004204 -0.704633 
-1.066092 0.004265 -0.544337 
-1.137556 0.004393 -0.370570 
-1.181017 0.004409 -0.187919 
0.818762 -0.403361 -0.413120 
0.421543 -0.800729 -0.441662 
0.394238 -0.380070 -0.835545 
0.891680 -0.305033 -0.335054 
0.301807 -0.902083 -0.333339 
0.681380 -0.340653 -0.647286 
0.560419 -0.636737 -0.538294 
0.871872 -0.489277 -0.106859 
0.183459 -0.622304 -0.761852 
0.610875 -0.174739 -0.768551 
0.870603 -0.161787 -0.458393 
0.211520 -0.857948 -0.479099 
0.950513 -0.144698 -0.264225 
0.802557 -0.298426 -0.515593 
0.686880 -0.652048 -0.342173 
0.469922 -0.871998 -0.200281 
0.634085 -0.767157 -0.173303 
0.527728 -0.481661 -0.701198 
0.794374 -0.146923 -0.583957 
0.561964 -0.761787 -0.347179 
0.982364 -0.129458 -0.112046 
0.775423 -0.626186 -0.150407 
0.158636 -0.955361 -0.276139 
0.937533 -0.314020 -0.157457 
0.737114 -0.476375 -0.485162 
0.274997 -0.959825 -0.150688 
0.549021 -0.304022 -0.776730 
0.337283 -0.710015 -0.624046 
0.835595 -0.476337 -0.288296 
0.496662 -0.183798 -0.844932 
0.151546 -0.761663 -0.633703 
0.196668 -0.482315 -0.852636 
0.177378 -0.318692 -0.928907 
0.353234 -0.560022 -0.750950 
0.639436 -0.486775 -0.598712 
0.130849 -0.991907 -0.123655 
0.450425 -0.606546 -0.659323 
0.328458 -0.216956 -0.916519 
0.203966 -0.132936 -0.967213 
0.495113 0.582750 -0.637427 
0.497000 0.784599 -0.359569 
0.800487 0.368959 -0.453135 
0.395035 0.469268 -0.785864 
0.343649 0.888366 -0.303305 
0.286996 0.314119 -0.902393 
0.167610 0.164942 -0.969943 
0.755251 0.213051 -0.608108 
0.664803 0.535542 -0.506262 
0.495055 0.846759 -0.171395 
0.596962 0.174259 -0.776035 
0.177444 0.882688 -0.443103 
0.164512 0.477703 -0.863215 
0.548560 0.683261 -0.470655 
0.145350 0.959696 -0.258054 
0.386611 0.138962 -0.907646 
0.120287 0.325179 -0.937433 
0.617797 0.701351 -0.335648 
0.110369 0.629407 -0.772366 
0.162343 0.759534 -0.634278 
0.295970 0.627080 -0.719667 
0.847615 0.481459 -0.170350 
0.602727 0.392105 -0.685899 
0.369772 0.768442 -0.519773 
0.752325 0.550645 -0.335524 
0.119095 0.991110 -0.112850 
0.282418 0.949751 -0.141430 
0.698736 0.687348 -0.148445 
0.940167 0.141652 -0.283892 
0.468426 0.304893 -0.823818 
0.846531 0.405892 -0.315017 
0.869887 0.166143 -0.447291 
0.931357 0.287374 -0.175916 
0.888173 0.279156 -0.339182 
0.976180 0.122639 -0.130551 
0.717985 0.381744 -0.568373 
0.456676 0.456929 0.756136 
0.445801 0.803718 0.380872 
0.824158 0.406565 0.370660 
0.330307 0.311324 0.886583 
0.297309 0.906538 0.294334 
0.898195 0.332163 0.254668 
0.956689 0.162312 0.210118 
0.544978 0.629434 0.541272 
0.105949 0.480522 0.867296 
0.748562 0.161267 0.635404 
0.440695 0.156542 0.880280 
0.421719 0.884323 0.181231 
0.856259 0.467444 0.167182 
0.260841 0.139033 0.952600 
0.247303 0.959207 0.140659 
0.930528 0.316410 0.123344 
0.610324 0.155003 0.771838 
0.512378 0.288081 0.803116 
0.313522 0.627752 0.706652 
0.766346 0.616618 0.113365 
0.660375 0.720197 0.168510 
0.582941 0.491004 0.636570 
0.188430 0.753943 0.626303 
0.751425 0.573305 0.296450 
0.621497 0.681773 0.364494 
0.383982 0.718288 0.571957 
0.544220 0.801481 0.220615 
0.104040 0.990929 0.122013 
0.112233 0.121651 0.983775 
0.460272 0.592256 0.652414 
0.147216 0.613013 0.772974 
0.696234 0.502449 0.496250 
0.637682 0.345835 0.679115 
0.156149 0.308129 0.935106 
0.159314 0.952134 0.266846 
0.778106 0.314741 0.529797 
0.835575 0.134787 0.522861 
0.210566 0.866305 0.450977 
0.880517 0.227697 0.398276 
0.253359 0.475489 0.837912 
0.517845 -0.799154 0.344950 
0.332190 -0.378578 0.868531 
0.333691 -0.884283 0.362314 
0.153127 -0.470762 0.873317 
0.513728 -0.164006 0.843472 
0.433067 -0.895727 0.190430 
0.610847 -0.556048 0.579381 
0.267984 -0.178897 0.947359 
0.234278 -0.966878 0.181710 
0.913952 -0.382589 0.164426 
0.771405 -0.409626 0.499314 
0.742423 -0.670258 0.143358 
0.867746 -0.196248 0.459074 
0.953272 -0.189198 0.235514 
0.508870 -0.328974 0.800632 
0.571639 -0.686941 0.473270 
0.616614 -0.785919 0.165259 
0.712492 -0.647953 0.306515 
[...]
POINT_DATA 1108
SCALARS u float 1
LOOKUP_TABLE default
0.008286
0.008158
0.009507
0.009540
0.002831
0.002724
0.006417
0.006439
0.007751
0.007858
0.002288
0.002166
0.009410
0.010351
0.010482
0.009737
0.008457
0.007651
0.007977
0.011045
0.012300
0.012460
0.011463
0.009889
0.008260
0.007564
0.009291
0.010274
0.010294
0.009592
0.008430
0.007658
0.008044
0.011116
0.012294
0.012503
0.011513
0.009902
0.008346
0.007647
0.003674
0.004928
0.006533
0.007994
0.009232
0.009909
0.009942
0.008606
0.007371
0.005950
0.004689
0.003683
0.002878
0.002533
0.003514
0.004874
0.006473
0.007895
0.009138
0.009823
0.009894
0.008569
0.007342
0.006064
0.004730
0.003740
0.002993
0.002606
0.008025
0.007592
0.006918
0.006152
0.005298
0.004226
0.003248
0.003016
0.003991
0.005033
0.005951
0.006898
0.007600
0.008017
0.007960
0.007591
0.006890
0.006143
0.005217
0.004060
0.003152
0.003017
0.003850
0.004962
0.006027
0.006997
0.007701
0.008130
0.008117
0.009486
0.010177
0.009869
0.008830
0.007361
0.005811
0.005072
0.005973
0.009691
0.011203
0.012093
0.011694
0.010406
0.008899
0.006999
0.005383
0.005233
0.007977
0.009338
0.010072
0.009686
0.008827
0.007420
0.005866
0.005072
0.005988
0.009690
0.011221
0.012116
0.011724
0.010482
0.008979
0.007077
0.005427
0.005219
0.007044
0.006019
0.004933
0.003991
0.003182
0.002683
0.002564
0.002527
0.002366
0.002426
0.002838
0.003931
0.005103
0.006259
0.007417
0.008177
0.008395
0.008327
0.007037
0.006042
0.005101
0.004138
0.003223
0.002631
0.002572
0.002608
0.002496
0.002341
0.002890
0.003920
0.005124
0.006303
0.007480
0.008251
0.008440
0.008351
0.006531
0.006515
0.006191
0.005807
0.005154
0.004592
0.004120
0.003144
0.002555
0.002377
0.002819
0.003259
0.003633
0.004281
0.004878
0.005317
0.005771
0.006128
0.006577
0.006580
0.006309
0.005869
0.005206
0.004577
0.003993
0.003117
0.002413
0.002213
0.002833
0.003208
0.003750
0.004260
0.004852
0.005301
0.005756
0.006099
0.006837
0.008497
0.003540
0.006911
0.009387
0.005240
0.007056
0.008802
0.004271
0.004729
0.006625
0.007519
0.007367
0.006113
0.008961
0.011235
0.011122
0.004906
0.006036
0.009587
0.007639
0.009880
0.009137
0.007586
0.006778
0.010809
0.004245
0.006163
0.007887
0.004065
0.005550
0.003172
0.002592
0.004516
0.005797
0.010012
0.005602
0.003070
0.002721
0.007027
0.007818
0.009173
0.005807
0.007611
0.004506
0.003452
0.007717
0.008481
0.008060
0.006099
0.008045
0.005321
0.007926
0.008608
0.004362
0.004302
0.008712
0.006522
0.007314
0.006173
0.010461
0.007221
0.007114
0.009613
0.008661
0.007797
0.009646
0.008864
0.005627
0.009867
0.008557
0.009970
0.009474
0.009048
0.008372
0.006044
0.007507
0.009429
0.004498
0.007051
0.009603
0.008942
0.007722
0.003846
0.007024
0.004691
0.007618
0.010304
0.003514
0.007432
0.009960
0.005891
0.005623
0.005590
0.010121
0.009359
0.007458
0.005385
0.009638
0.008830
0.006591
0.008386
0.008157
0.002901
0.006703
0.004533
0.008635
0.007103
0.003407
0.007272
0.008271
0.007553
0.006356
0.008509
0.004530
0.012923
0.006530
0.012525
0.006429
0.005500
0.013031
0.010293
0.004407
0.012049
0.008647
0.008987
0.011452
0.007435
0.007736
0.006946
0.011814
0.012751
0.011583
0.003385
0.004697
0.010465
0.011256
0.011908
0.009977
0.010931
0.006932
0.011812
0.009047
0.010630
0.009781
0.008224
0.010517
0.008471
0.008269
0.006204
0.005369
0.008435
0.010787
0.007070
0.007818
0.008937
0.005810
0.007625
0.004625
0.003536
0.007666
0.008443
0.008057
0.006144
0.008108
0.005327
0.007825
0.008632
0.004453
0.004297
0.008615
0.006567
0.007381
0.006257
0.010314
0.007220
0.007189
0.009641
0.008715
0.007809
0.009478
0.008729
0.005666
0.009750
0.008386
0.009799
0.009266
0.008949
0.008284
0.005990
0.007519
0.009417
0.004345
0.006957
0.009609
0.008893
0.007659
0.003741
0.007057
0.004546
0.007594
0.010113
0.003432
0.007474
0.009892
0.005926
0.005610
0.005607
0.009986
0.009185
0.007367
0.005416
0.009672
0.008777
0.006572
0.008362
0.008181
0.002776
0.006695
0.004488
0.008525
0.007073
0.003309
0.007221
0.008248
0.007580
0.006329
0.008610
0.004559
0.012819
0.006436
0.012400
0.006254
0.005457
0.012950
0.010184
0.004247
0.011977
0.008569
0.008912
0.011387
0.007381
0.007672
0.006869
0.011701
0.012691
0.011467
0.003230
0.004585
0.010341
0.011136
0.011806
0.009912
0.010794
0.006870
0.011680
0.008890
0.010535
0.009698
0.008141
0.010405
0.008390
0.008158
0.006187
0.005276
0.008359
0.010735
0.006810
0.008612
0.003600
0.006857
0.009521
0.005228
0.007099
0.008750
0.004339
0.004738
0.006539
0.007675
0.007287
0.006072
0.008929
0.011225
0.010949
0.004951
0.005988
0.009479
0.007534
0.009876
0.009116
0.007495
0.006763
0.010786
0.004271
0.006269
0.007870
0.004122
0.005636
0.003254
0.002641
0.004614
0.005815
0.009928
0.005697
0.003118
0.002764
0.010710
0.008381
0.005233
0.006130
0.011986
0.005249
0.011277
0.003781
0.005086
0.010719
0.002485
0.005325
0.009058
0.007282
0.004732
0.009619
0.003626
0.005598
0.012171
0.009258
0.008609
0.012619
0.004915
0.010038
0.004652
0.009882
0.006205
0.012047
0.005205
0.009948
0.006634
0.006861
0.008497
0.009853
0.008135
0.011914
0.007327
0.004349
0.008019
0.005101
0.006420
0.004087
0.006976
0.005820
0.010702
0.005614
0.011289
0.010723
0.011536
0.007589
0.012511
0.008882
0.011174
0.009300
0.005430
0.010410
0.007193
0.004456
0.010211
0.003203
0.003141
0.002831
0.007688
0.005742
0.003772
0.005064
0.009374
0.005513
0.008979
0.003316
0.005704
0.008742
0.002651
0.006956
0.004559
0.003925
0.005871
0.007395
0.004876
0.003693
0.009159
0.006468
0.006490
0.009812
0.006590
0.007877
0.003140
0.006739
0.005157
0.009785
0.006906
0.007740
0.004911
0.004455
0.006207
0.006980
0.005371
0.008854
0.005001
0.005754
0.006346
0.003594
0.005792
0.004783
0.005713
0.004720
0.008171
0.005132
0.008758
0.008031
0.009305
0.005531
0.009867
0.005824
0.008016
0.007558
0.006896
0.004792
0.007647
0.004432
0.008161
0.003924
0.002755
0.003195
0.006867
0.006814
0.004944
0.003935
0.008294
0.003416
0.008415
0.004684
0.002755
0.007064
0.005535
0.008900
0.004167
0.004187
0.009938
0.003385
0.006625
0.004032
0.007424
0.005620
0.004231
0.006229
0.009546
0.003176
0.004383
0.007214
0.003443
0.006933
0.008425
0.002768
0.006120
0.005361
0.007687
0.007885
0.006304
0.008616
0.005064
0.009361
0.003168
0.004684
0.007510
0.003707
0.008269
0.004413
0.009347
0.004182
0.009191
0.006080
0.004807
0.004420
0.007577
0.008057
0.006199
0.007344
0.002362
0.005352
0.008783
0.005794
0.005158
0.005280
0.005223
0.004952
0.003606
0.006138
0.008763
0.002563
0.004568
0.002426
0.004732
0.002761
0.005464
0.003662
0.008512
0.005304
0.009791
0.002519
0.007330
0.005509
0.010998
0.003883
0.003038
0.003624
0.004670
0.002348
0.005352
0.010704
0.004716
0.003065
0.005108
0.002453
0.004961
0.007601
0.007373
0.010193
0.005429
0.007976
0.006165
0.004613
0.004808
0.002482
0.002847
0.009189
0.006783
0.009500
0.004029
0.010467
0.002754
0.006629
0.002160
0.005300
0.003601
0.004540
0.002884
0.004296
0.003398
0.004816
0.005607
0.002473
0.006424
0.003531
0.009388
0.004338
0.008590
0.008428
0.008149
0.006327
0.004126
0.008939
0.004988
0.008398
0.004690
0.008367
0.005138
0.004312
0.006262
0.005263
0.004092
0.003962
0.006346
0.003171
0.004204
0.007148
0.009158
0.009792
0.006786
0.004664
0.006950
0.003635
0.007351
0.009479
0.005136
0.005517
0.007084
0.005245
0.003186
0.002711
0.006148
0.005190
0.006273
0.007095
0.005801
0.008644
0.003496
0.005188
0.004907
0.004059
0.004716
0.003231
0.007386
0.004677
0.008066
0.004659
0.008429
0.009217
0.009521
0.005915
0.006840
0.007998
0.006209
0.007277
0.007506
0.005636
0.003227
0.008288
0.002648
0.002188
0.003623
0.006097
0.008031
0.002569
0.004599
0.002426
0.004767
0.009075
0.002719
0.005496
0.008890
0.003599
0.008551
0.005208
0.002507
0.007387
0.005284
0.011102
0.003914
0.003047
0.003601
0.004705
0.002341
0.005422
0.007037
0.004688
0.003007
0.005147
0.002404
0.004982
0.007622
0.005313
0.007665
0.006070
0.004528
0.004821
0.002457
0.002855
0.009375
0.006513
0.009465
0.003982
0.010442
0.002699
0.006631
0.002159
0.005340
0.003628
0.004584
0.002866
0.004324
0.003360
0.004802
0.005608
0.002350
0.003436
0.006354
0.009758
0.004367
0.007101
0.010840
0.010306
0.010817
0.008489
0.004799
0.006202
0.012085
0.005309
0.011353
0.005115
0.010758
0.005318
0.009150
0.004762
0.007369
0.004781
0.009724
0.003689
0.005481
0.012259
0.009363
0.008683
0.012686
0.004945
0.010130
0.003410
0.009985
0.006280
0.012108
0.005216
0.009993
0.006710
0.004068
0.002697
0.006590
0.008570
0.009967
0.008144
0.012014
0.007413
0.004398
0.008102
0.004874
0.006299
0.004101
0.007057
0.005868
0.010807
0.005683
0.011402
0.010835
0.011597
0.007672
0.012598
0.008965
0.011270
0.009340
0.005440
0.007171
0.010498
0.003175
0.010295
0.002563
0.002286
0.004607
0.007635
0.008784
0.005172
0.003484
0.005515
0.003316
0.008956
0.006977
0.002603
0.008112
0.008146
0.006338
0.007428
0.006495
0.005026
0.009696
0.007160
0.003990
0.004686
0.006037
0.003641
0.005144
0.003865
0.008029
0.006067
0.006526
0.002990
0.005730
0.002969
0.008721
0.008239
0.007562
0.006842
0.006981
0.004578
0.005145
0.008168
0.005568
0.009127
0.008179
0.009221
0.006396
0.006350
0.005460
0.005264
0.004351
0.004670
0.004685
0.005223
0.003508
0.005683
0.005395
0.002489
0.006942
0.006152
0.006700
0.009626
0.005809
0.009834
0.007495
0.009184
0.002814
0.006306
0.008723
0.005219
0.006542
0.002602
0.003362
0.008924
0.003699
0.002380
0.006730
0.008793
0.006815
0.006912
0.008242
0.008611
0.006364
0.007771
0.005125
0.004372
0.011799
0.009823
0.009500
0.008769
0.008736
0.009364
0.008661
0.008963
0.009056
0.007709
0.003319
0.004939
0.007004
0.011266
0.013175
0.007795
0.009304
0.011360
0.009223
0.008719
0.007220
0.005598
0.005376
0.010543
0.007819
0.005653
0.008555
0.008656
0.003493
0.009077
0.008900
0.006561
0.008176
0.002598
0.003646
0.006530
0.005061
0.010929
0.009424
0.008203
0.009358
0.003930
0.003751
0.002928
0.006644
0.010305
0.003098
0.004769
0.008455
0.009499
0.009191
0.008547
0.003203
0.005439
0.007689
0.004162
0.003445
0.007674
0.008004
0.004764
0.006198
0.007741
0.008834
0.008181
0.009696
0.010126
0.012579
0.010916
0.011552
0.007022
0.009903
0.012074
0.008412
0.005469
0.006716
0.004625
0.003088
0.003539
0.010149
0.004930
0.008480
0.003346
