# vtk DataFile Version 2.0
Unstructured Grid Example
ASCII
DATASET UNSTRUCTURED_GRID
POINTS 1108 float
0.981724 -0.023687 0.003887 
-0.982010 0.023353 -0.003655 
-0.023590 1.024496 -0.006455 
0.023579 -1.024660 0.006518 
0.003863 -0.006284 0.992800 
-0.003945 0.006534 -0.993666 
1.182843 -0.015650 0.002578 
-1.182859 0.015809 -0.002421 
-0.015626 1.223154 -0.004027 
0.015954 -1.223367 0.004251 
0.002496 -0.004187 1.193246 
-0.002458 0.004056 -1.193701 
0.954600 0.173126 0.002400 
0.892196 0.362307 0.001164 
0.797564 0.538051 -0.000059 
0.674188 0.694053 -0.001712 
0.525435 0.826003 -0.003199 
0.355505 0.928085 -0.004435 
0.170453 0.995163 -0.005465 
-0.218314 1.012864 -0.006990 
-0.405851 0.961484 -0.007401 
-0.576679 0.870943 -0.007379 
-0.724265 0.744489 -0.007092 
-0.842472 0.589202 -0.006659 
-0.925747 0.412115 -0.005906 
-0.972554 0.220911 -0.004895 
-0.954991 -0.173319 -0.002268 
-0.892451 -0.362434 -0.001271 
-0.798220 -0.538267 0.000202 
-0.674787 -0.693991 0.001811 
-0.525596 -0.825669 0.003161 
-0.355404 -0.927632 0.004374 
-0.170241 -0.995238 0.005610 
0.218520 -1.013002 0.007160 
0.406005 -0.961341 0.007510 
0.576840 -0.871005 0.007555 
0.724616 -0.744505 0.007218 
0.842488 -0.589234 0.006734 
0.926009 -0.412382 0.006078 
0.972656 -0.221223 0.005122 
0.008565 -0.204351 0.976328 
0.012689 -0.395347 0.923150 
0.016491 -0.572427 0.834574 
0.019477 -0.727877 0.713149 
0.021800 -0.855912 0.563144 
0.023203 -0.950292 0.390796 
0.024166 -1.006748 0.202320 
0.022348 -1.001922 -0.189111 
0.020301 -0.940357 -0.376626 
0.017298 -0.842723 -0.548973 
0.013680 -0.713935 -0.699507 
0.009827 -0.558351 -0.822778 
0.005284 -0.381913 -0.914863 
0.000526 -0.191099 -0.972489 
-0.008276 0.204036 -0.976888 
-0.012540 0.395241 -0.923896 
-0.016383 0.572238 -0.834517 
-0.019259 0.727639 -0.712920 
-0.021544 0.855706 -0.563014 
-0.022990 0.950091 -0.390662 
-0.023943 1.006736 -0.202240 
-0.022197 1.001956 0.189386 
-0.020183 0.940479 0.377042 
-0.017446 0.843291 0.548978 
-0.013769 0.714207 0.699582 
-0.010152 0.558470 0.822868 
-0.005535 0.382188 0.914506 
-0.000653 0.191496 0.972029 
0.964669 -0.024275 0.197292 
0.910561 -0.024217 0.383129 
0.820932 -0.022854 0.554501 
0.699732 -0.021049 0.705021 
0.551136 -0.018513 0.828343 
0.380932 -0.014650 0.919515 
0.196054 -0.010303 0.975064 
-0.188584 -0.001285 0.972035 
-0.372644 0.002939 0.913792 
-0.542933 0.008110 0.820964 
-0.692200 0.011925 0.696857 
-0.814388 0.015863 0.546220 
-0.905298 0.019035 0.375061 
-0.961874 0.021534 0.189550 
-0.964730 0.024050 -0.197046 
-0.910477 0.024172 -0.382882 
-0.820773 0.022653 -0.554264 
-0.699559 0.020941 -0.704910 
-0.550737 0.018143 -0.828591 
-0.381059 0.014180 -0.920029 
-0.196400 0.010315 -0.975926 
0.188237 0.001833 -0.972396 
0.373011 -0.002988 -0.914180 
0.542986 -0.007917 -0.821203 
0.691916 -0.012016 -0.696790 
0.813982 -0.015936 -0.546118 
0.905183 -0.019395 -0.374907 
0.961874 -0.021995 -0.189180 
1.160424 0.171759 0.001889 
1.111295 0.353690 0.001043 
1.036991 0.526485 0.000222 
0.939682 0.687419 -0.000564 
0.820285 0.833195 -0.000973 
0.680715 0.960429 -0.001982 
0.524055 1.065871 -0.002584 
0.353448 1.146695 -0.003139 
0.172100 1.199873 -0.003787 
-0.204645 1.215873 -0.004398 
-0.389604 1.177134 -0.004957 
-0.566084 1.107432 -0.004928 
-0.726944 1.007139 -0.005225 
-0.867766 0.880831 -0.004698 
-0.986119 0.733568 -0.004367 
-1.078263 0.568241 -0.004174 
-1.141823 0.390054 -0.003723 
-1.176516 0.204353 -0.003256 
-1.160871 -0.172003 -0.001834 
-1.111628 -0.354180 -0.000795 
-1.037349 -0.526625 -0.000117 
-0.940139 -0.687959 0.000597 
-0.820030 -0.833706 0.001044 
-0.680466 -0.960503 0.002128 
-0.523905 -1.065585 0.002623 
-0.353394 -1.146447 0.003258 
-0.172088 -1.199978 0.003653 
0.204687 -1.215834 0.004482 
0.389832 -1.177094 0.004938 
0.566168 -1.107465 0.005053 
0.727055 -1.007194 0.005270 
0.867949 -0.881031 0.004791 
0.986367 -0.733758 0.004437 
1.078440 -0.568468 0.004250 
1.142067 -0.390195 0.003792 
1.176615 -0.204332 0.003332 
0.015151 -1.205728 -0.184925 
0.014130 -1.157849 -0.368423 
0.012813 -1.081479 -0.541993 
0.011492 -0.978893 -0.701609 
0.009194 -0.853021 -0.843093 
0.006743 -0.707028 -0.963955 
0.004660 -0.544182 -1.061139 
0.002343 -0.368916 -1.132577 
0.000239 -0.185183 -1.176997 
-0.005269 0.193797 -1.181568 
-0.007312 0.378099 -1.140672 
-0.009340 0.555280 -1.071953 
-0.011146 0.719006 -0.976680 
-0.012567 0.865989 -0.856053 
-0.014500 0.991757 -0.714326 
-0.014981 1.093356 -0.553664 
-0.015523 1.166558 -0.378150 
-0.015878 1.210377 -0.193610 
-0.015167 1.205672 0.184810 
-0.014157 1.157960 0.368585 
-0.012760 1.082335 0.541661 
-0.011756 0.979500 0.701671 
-0.009364 0.853309 0.843315 
-0.006339 0.707071 0.963848 
-0.004714 0.544196 1.061139 
-0.002455 0.368861 1.132308 
-0.000253 0.184968 1.176569 
0.005056 -0.193005 1.180844 
0.007303 -0.378325 1.140224 
0.009532 -0.555060 1.071915 
0.011231 -0.719047 0.976659 
0.012545 -0.866128 0.856251 
0.014615 -0.991922 0.714443 
0.015088 -1.093582 0.553775 
0.015640 -1.166683 0.378163 
0.015963 -1.210413 0.193669 
-1.167160 0.014731 0.183022 
-1.123077 0.013752 0.364292 
-1.051962 0.011971 0.536578 
-0.954936 0.010566 0.696224 
-0.834801 0.007917 0.838474 
-0.694155 0.005607 0.959734 
-0.535067 0.003439 1.058313 
-0.364279 0.000918 1.131917 
-0.183313 -0.001485 1.177169 
0.188446 -0.006635 1.179715 
0.370074 -0.009095 1.136567 
0.542396 -0.010942 1.065293 
0.701361 -0.012134 0.967371 
0.842507 -0.014075 0.845594 
0.962500 -0.015497 0.702885 
1.058006 -0.015716 0.543267 
1.127855 -0.016152 0.369994 
1.169852 -0.016154 0.188498 
1.166933 -0.014707 -0.182968 
1.122789 -0.013698 -0.364117 
1.051440 -0.011939 -0.536457 
0.954600 -0.010377 -0.696075 
0.834738 -0.007935 -0.838227 
0.694344 -0.005840 -0.959746 
0.535208 -0.003267 -1.058774 
0.363888 -0.000765 -1.132313 
0.183690 0.000940 -1.177477 
-0.188406 0.006412 -1.180393 
-0.370134 0.009555 -1.137443 
-0.542609 0.010871 -1.065530 
-0.701799 0.012698 -0.967269 
-0.842494 0.013954 -0.845442 
-0.962390 0.015309 -0.702760 
-1.057861 0.015529 -0.543144 
-1.127754 0.015995 -0.369910 
-1.169901 0.016055 -0.188442 
0.818570 -0.420829 -0.408548 
0.432719 -0.819872 -0.438161 
0.394386 -0.386953 -0.829221 
0.888212 -0.322314 -0.330312 
0.315740 -0.922261 -0.329680 
0.679301 -0.353082 -0.641566 
0.567135 -0.653624 -0.534174 
0.876632 -0.511588 -0.102396 
0.190438 -0.629485 -0.756658 
0.605269 -0.183328 -0.761422 
0.862304 -0.176087 -0.452668 
0.223833 -0.873057 -0.475296 
0.941388 -0.161200 -0.259430 
0.798906 -0.313211 -0.510232 
0.695374 -0.673784 -0.338245 
0.484671 -0.897439 -0.196317 
0.646977 -0.793195 -0.168992 
0.529813 -0.493256 -0.695803 
0.786404 -0.159073 -0.577404 
0.573269 -0.784145 -0.343523 
0.973005 -0.146887 -0.108088 
0.784157 -0.650387 -0.146057 
0.173968 -0.973586 -0.272259 
0.935186 -0.333427 -0.153076 
0.739171 -0.493577 -0.480653 
0.291054 -0.983024 -0.146346 
0.546532 -0.312825 -0.770251 
0.345588 -0.723388 -0.619903 
0.838791 -0.496428 -0.283823 
0.491949 -0.190026 -0.837569 
0.161463 -0.771518 -0.629295 
0.200436 -0.486765 -0.846622 
0.178102 -0.320467 -0.922336 
0.357705 -0.569759 -0.745709 
0.641764 -0.501172 -0.594048 
0.147359 -1.012094 -0.119290 
0.455809 -0.619544 -0.654742 
0.325853 -0.220025 -0.909481 
0.201031 -0.133279 -0.960661 
0.476874 0.581611 -0.634189 
0.476356 0.784205 -0.359418 
0.779227 0.358845 -0.447422 
0.380148 0.470432 -0.782368 
0.324491 0.894076 -0.305415 
0.276097 0.316511 -0.898253 
0.160587 0.168389 -0.965262 
0.738412 0.204013 -0.601024 
0.643787 0.529214 -0.501797 
0.473840 0.845663 -0.172762 
0.583680 0.168767 -0.768763 
0.160397 0.894881 -0.446588 
0.152420 0.484800 -0.862256 
0.527896 0.680830 -0.468367 
0.127677 0.973362 -0.262265 
0.377217 0.137686 -0.901104 
0.111137 0.331472 -0.935029 
0.595478 0.696009 -0.334001 
0.096845 0.639926 -0.774147 
0.146663 0.770531 -0.636801 
0.280628 0.632548 -0.718985 
0.823202 0.468755 -0.167904 
0.585217 0.387423 -0.679965 
0.351461 0.772641 -0.520109 
0.729062 0.541106 -0.331996 
0.101532 1.005108 -0.117181 
0.263592 0.957437 -0.144676 
0.674744 0.678791 -0.148060 
0.922241 0.127420 -0.278974 
0.454920 0.303053 -0.817898 
0.823762 0.394017 -0.310584 
0.851884 0.154082 -0.440870 
0.909600 0.272952 -0.172463 
0.867273 0.266425 -0.333968 
0.958456 0.107013 -0.126982 
0.698234 0.373960 -0.562187 
0.444747 0.448942 0.749155 
0.427105 0.799922 0.375477 
0.804150 0.392265 0.366737 
0.323611 0.304284 0.879748 
0.279507 0.909361 0.289652 
0.877944 0.317021 0.252686 
0.939963 0.145639 0.210087 
0.527444 0.621233 0.534852 
0.098790 0.479404 0.860179 
0.737388 0.146926 0.631714 
0.435462 0.146568 0.875122 
0.402052 0.883778 0.177019 
0.833172 0.453152 0.165349 
0.258249 0.131968 0.947170 
0.229302 0.965920 0.136634 
0.909354 0.300804 0.123013 
0.602313 0.142385 0.767515 
0.503285 0.278080 0.796965 
0.300871 0.624442 0.699801 
0.742418 0.604882 0.111318 
0.637606 0.711153 0.165228 
0.567433 0.480813 0.629963 
0.175521 0.755362 0.620508 
0.729510 0.560965 0.292530 
0.600740 0.672475 0.359340 
0.368272 0.714468 0.565504 
0.523195 0.795992 0.216330 
0.087075 1.003516 0.117786 
0.111793 0.116605 0.978029 
0.445572 0.585161 0.645558 
0.137206 0.612855 0.766407 
0.677753 0.490320 0.490650 
0.624457 0.333870 0.673293 
0.151647 0.304351 0.928291 
0.142622 0.960582 0.262504 
0.761990 0.300789 0.525028 
0.823532 0.119081 0.520381 
0.195076 0.870114 0.445747 
0.864379 0.212244 0.395885 
0.244564 0.471698 0.830743 
0.533944 -0.828148 0.353021 
0.339243 -0.394065 0.871336 
0.350577 -0.911602 0.370238 
0.162672 -0.484546 0.875990 
0.514800 -0.178493 0.843589 
0.450242 -0.924705 0.197487 
0.621522 -0.580052 0.586371 
0.271382 -0.189964 0.946159 
0.251662 -0.992715 0.188259 
0.916544 -0.404845 0.168840 
0.777188 -0.432086 0.504363 
0.754318 -0.697418 0.149337 
0.865690 -0.215650 0.461282 
0.948726 -0.208912 0.238365 
0.514223 -0.346248 0.803710 
0.585344 -0.713790 0.481317 
0.631718 -0.815248 0.172020 
0.724875 -0.675089 0.313311 
[...]
POINT_DATA 1108
SCALARS u float 1
LOOKUP_TABLE default
0.030170
0.029705
0.034615
0.034736
0.010308
0.009918
0.023365
0.023444
0.028222
0.028611
0.008329
0.007885
0.034262
0.037688
0.038164
0.035454
0.030794
0.027857
0.029045
0.040215
0.044784
0.045367
0.041739
0.036007
0.030076
0.027540
0.033830
0.037408
0.037483
0.034927
0.030693
0.027882
0.029289
0.040474
0.044762
0.045525
0.041920
0.036055
0.030389
0.027843
0.013379
0.017942
0.023786
0.029108
0.033616
0.036080
0.036198
0.031336
0.026838
0.021665
0.017074
0.013411
0.010479
0.009221
0.012794
0.017747
0.023569
0.028745
0.033271
0.035767
0.036026
0.031200
0.026734
0.022081
0.017223
0.013618
0.010897
0.009488
0.029221
0.027641
0.025189
0.022401
0.019291
0.015387
0.011825
0.010980
0.014533
0.018326
0.021668
0.025117
0.027671
0.029190
0.028982
0.027640
0.025086
0.022368
0.018995
0.014783
0.011477
0.010986
0.014020
0.018068
0.021945
0.025478
0.028039
0.029603
0.029555
0.034538
0.037054
0.035932
0.032152
0.026803
0.021159
0.018469
0.021747
0.035284
0.040789
0.044032
0.042579
0.037890
0.032401
0.025484
0.019599
0.019054
0.029045
0.034001
0.036673
0.035269
0.032139
0.027015
0.021357
0.018469
0.021803
0.035281
0.040858
0.044116
0.042688
0.038165
0.032693
0.025768
0.019758
0.019004
0.025646
0.021917
0.017961
0.014531
0.011587
0.009769
0.009337
0.009200
0.008615
0.008835
0.010334
0.014312
0.018581
0.022791
0.027006
0.029771
0.030566
0.030321
0.025623
0.022000
0.018572
0.015067
0.011736
0.009580
0.009364
0.009494
0.009088
0.008525
0.010523
0.014272
0.018656
0.022951
0.027234
0.030042
0.030732
0.030406
0.023779
0.023720
0.022542
0.021145
0.018767
0.016719
0.015001
0.011449
0.009304
0.008656
0.010265
0.011865
0.013228
0.015588
0.017760
0.019359
0.021011
0.022314
0.023948
0.023959
0.022971
0.021370
0.018954
0.016664
0.014537
0.011351
0.008785
0.008059
0.010315
0.011682
0.013653
0.015513
0.017666
0.019303
0.020960
0.022207
0.024894
0.030938
0.012888
0.025164
0.034180
0.019079
0.025690
0.032047
0.015551
0.017220
0.024122
0.027377
0.026824
0.022258
0.032626
0.040908
0.040495
0.017864
0.021976
0.034906
0.027813
0.035975
0.033267
0.027619
0.024680
0.039355
0.015455
0.022441
0.028717
0.014799
0.020210
0.011548
0.009438
0.016443
0.021109
0.036454
0.020398
0.011178
0.009908
0.025586
0.028466
0.033399
0.021143
0.027714
0.016408
0.012570
0.028098
0.030879
0.029347
0.022206
0.029291
0.019375
0.028858
0.031341
0.015881
0.015665
0.031720
0.023748
0.026632
0.022475
0.038091
0.026293
0.025903
0.035002
0.031534
0.028389
0.035121
0.032276
0.020488
0.035927
0.031158
0.036301
0.034495
0.032945
0.030485
0.022006
0.027332
0.034333
0.016378
0.025674
0.034967
0.032559
0.028117
0.014002
0.025575
0.017079
0.027738
0.037518
0.012794
0.027061
0.036265
0.021450
0.020474
0.020353
0.036851
0.034077
0.027155
0.019605
0.035091
0.032152
0.024000
0.030533
0.029701
0.010561
0.024407
0.016506
0.031440
0.025863
0.012407
0.026477
0.030115
0.027500
0.023143
0.030980
0.016493
0.047055
0.023778
0.045604
0.023407
0.020027
0.047448
0.037477
0.016045
0.043871
0.031484
0.032722
0.041699
0.027071
0.028167
0.025290
0.043014
0.046427
0.042176
0.012325
0.017103
0.038102
0.040983
0.043356
0.036328
0.039802
0.025242
0.043007
0.032942
0.038704
0.035613
0.029945
0.038292
0.030845
0.030108
0.022591
0.019550
0.030713
0.039274
0.025741
0.028467
0.032541
0.021156
0.027764
0.016840
0.012875
0.027913
0.030741
0.029337
0.022371
0.029523
0.019398
0.028493
0.031431
0.016213
0.015646
0.031369
0.023911
0.026874
0.022783
0.037552
0.026290
0.026174
0.035103
0.031733
0.028433
0.034509
0.031781
0.020631
0.035502
0.030536
0.035680
0.033737
0.032586
0.030162
0.021812
0.027379
0.034288
0.015819
0.025330
0.034987
0.032379
0.027888
0.013622
0.025696
0.016551
0.027651
0.036824
0.012495
0.027212
0.036018
0.021575
0.020425
0.020414
0.036360
0.033444
0.026825
0.019719
0.035218
0.031958
0.023930
0.030446
0.029789
0.010107
0.024378
0.016342
0.031042
0.025754
0.012048
0.026292
0.030033
0.027601
0.023045
0.031351
0.016598
0.046676
0.023433
0.045148
0.022773
0.019869
0.047152
0.037082
0.015465
0.043610
0.031201
0.032448
0.041461
0.026874
0.027935
0.025011
0.042604
0.046210
0.041754
0.011762
0.016693
0.037653
0.040546
0.042986
0.036091
0.039301
0.025014
0.042529
0.032370
0.038359
0.035310
0.029642
0.037886
0.030549
0.029705
0.022529
0.019210
0.030434
0.039088
0.024797
0.031359
0.013107
0.024966
0.034665
0.019037
0.025847
0.031859
0.015798
0.017253
0.023808
0.027946
0.026533
0.022107
0.032512
0.040872
0.039865
0.018026
0.021801
0.034513
0.027431
0.035960
0.033191
0.027291
0.024624
0.039274
0.015553
0.022825
0.028657
0.015007
0.020521
0.011848
0.009616
0.016801
0.021173
0.036150
0.020744
0.011351
0.010065
0.038995
0.030517
0.019055
0.022321
0.043640
0.019111
0.041061
0.013766
0.018518
0.039029
0.009050
0.019390
0.032979
0.026515
0.017231
0.035022
0.013201
0.020384
0.044314
0.033709
0.031344
0.045948
0.017896
0.036548
0.016936
0.035980
0.022593
0.043864
0.018950
0.036221
0.024154
0.024981
0.030938
0.035875
0.029621
0.043380
0.026677
0.015835
0.029198
0.018574
0.023377
0.014881
0.025399
0.021190
0.038968
0.020442
0.041104
0.039042
0.042002
0.027632
0.045552
0.032341
0.040686
0.033862
0.019772
0.037905
0.026191
0.016224
0.037178
0.011661
0.011435
0.010310
0.027994
0.020907
0.013733
0.018437
0.034132
0.020073
0.032693
0.012073
0.020768
0.031830
0.009651
0.025326
0.016600
0.014293
0.021375
0.026924
0.017755
0.013448
0.033348
0.023550
0.023632
0.035727
0.023996
0.028682
0.011431
0.024539
0.018778
0.035628
0.025144
0.028183
0.017881
0.016222
0.022600
0.025413
0.019558
0.032240
0.018210
0.020950
0.023108
0.013085
0.021090
0.017417
0.020801
0.017186
0.029750
0.018686
0.031888
0.029240
0.033880
0.020140
0.035928
0.021207
0.029188
0.027521
0.025107
0.017447
0.027845
0.016139
0.029713
0.014289
0.010033
0.011633
0.025002
0.024810
0.018002
0.014329
0.030199
0.012436
0.030638
0.017054
0.010030
0.025720
0.020152
0.032405
0.015173
0.015244
0.036187
0.012325
0.024124
0.014682
0.027033
0.020463
0.015404
0.022681
0.034758
0.011563
0.015958
0.026268
0.012537
0.025243
0.030674
0.010079
0.022285
0.019518
0.027989
0.028709
0.022952
0.031372
0.018438
0.034082
0.011534
0.017056
0.027345
0.013497
0.030108
0.016067
0.034033
0.015226
0.033467
0.022138
0.017502
0.016095
0.027590
0.029335
0.022572
0.026740
0.008599
0.019487
0.031980
0.021097
0.018780
0.019226
0.019019
0.018032
0.013130
0.022351
0.031908
0.009331
0.016632
0.008834
0.017229
0.010052
0.019896
0.013334
0.030992
0.019313
0.035651
0.009173
0.026688
0.020060
0.040044
0.014140
0.011060
0.013196
0.017003
0.008549
0.019487
0.038973
0.017172
0.011159
0.018598
0.008931
0.018065
0.027677
0.026847
0.037112
0.019768
0.029042
0.022448
0.016796
0.017505
0.009038
0.010364
0.033460
0.024697
0.034590
0.014668
0.038112
0.010028
0.024137
0.007865
0.019296
0.013112
0.016531
0.010500
0.015641
0.012373
0.017536
0.020414
0.009004
0.023392
0.012856
0.034181
0.015794
0.031277
0.030685
0.029671
0.023035
0.015022
0.032547
0.018163
0.030577
0.017076
0.030463
0.018709
0.015702
0.022801
0.019162
0.014898
0.014426
0.023108
0.011544
0.015306
0.026026
0.033344
0.035654
0.024709
0.016982
0.025305
0.013234
0.026765
0.034514
0.018700
0.020089
0.025793
0.019097
0.011601
0.009870
0.022387
0.018898
0.022840
0.025834
0.021123
0.031475
0.012728
0.018891
0.017867
0.014778
0.017170
0.011765
0.026892
0.017031
0.029367
0.016965
0.030691
0.033558
0.034668
0.021536
0.024905
0.029121
0.022608
0.026495
0.027329
0.020520
0.011748
0.030179
0.009642
0.007965
0.013192
0.022201
0.029240
0.009354
0.016745
0.008835
0.017358
0.033043
0.009900
0.020010
0.032368
0.013102
0.031135
0.018963
0.009127
0.026896
0.019241
0.040424
0.014250
0.011095
0.013112
0.017130
0.008522
0.019742
0.025623
0.017068
0.010949
0.018741
0.008754
0.018139
0.027752
0.019345
0.027910
0.022103
0.016486
0.017555
0.008947
0.010396
0.034134
0.023713
0.034463
0.014498
0.038020
0.009828
0.024144
0.007860
0.019442
0.013208
0.016690
0.010434
0.015743
0.012233
0.017485
0.020418
0.008555
0.012510
0.023135
0.035528
0.015900
0.025856
0.039471
0.037526
0.039386
0.030910
0.017472
0.022580
0.044003
0.019331
0.041335
0.018623
0.039170
0.019363
0.033316
0.017340
0.026830
0.017409
0.035407
0.013431
0.019957
0.044635
0.034092
0.031614
0.046190
0.018007
0.036886
0.012416
0.036358
0.022865
0.044088
0.018991
0.036386
0.024433
0.014811
0.009818
0.023996
0.031202
0.036289
0.029651
0.043743
0.026990
0.016013
0.029498
0.017748
0.022936
0.014933
0.025696
0.021366
0.039347
0.020692
0.041516
0.039452
0.042226
0.027936
0.045870
0.032642
0.041036
0.034009
0.019807
0.026109
0.038225
0.011559
0.037485
0.009333
0.008324
0.016776
0.027801
0.031982
0.018833
0.012684
0.020081
0.012073
0.032611
0.025403
0.009477
0.029537
0.029660
0.023076
0.027047
0.023649
0.018300
0.035302
0.026068
0.014529
0.017061
0.021980
0.013256
0.018731
0.014074
0.029234
0.022092
0.023761
0.010887
0.020862
0.010810
0.031753
0.029999
0.027534
0.024912
0.025419
0.016669
0.018732
0.029742
0.020274
0.033233
0.029782
0.033575
0.023289
0.023121
0.019882
0.019166
0.015841
0.017002
0.017060
0.019018
0.012772
0.020693
0.019643
0.009061
0.025277
0.022401
0.024395
0.035048
0.021150
0.035808
0.027289
0.033438
0.010247
0.022960
0.031763
0.019001
0.023821
0.009473
0.012242
0.032493
0.013470
0.008666
0.024505
0.032016
0.024813
0.025166
0.030009
0.031355
0.023171
0.028294
0.018660
0.015918
0.042959
0.035766
0.034591
0.031930
0.031807
0.034096
0.031534
0.032634
0.032975
0.028068
0.012084
0.017983
0.025503
0.041020
0.047971
0.028381
0.033876
0.041363
0.033581
0.031745
0.026289
0.020381
0.019575
0.038387
0.028468
0.020585
0.031149
0.031518
0.012717
0.033050
0.032405
0.023891
0.029770
0.009458
0.013277
0.023776
0.018428
0.039795
0.034312
0.029867
0.034073
0.014309
0.013656
0.010660
0.024191
0.037523
0.011279
0.017365
0.030786
0.034586
0.033464
0.031122
0.011663
0.019805
0.027997
0.015153
0.012544
0.027942
0.029144
0.017344
0.022569
0.028184
0.032167
0.029789
0.035304
0.036868
0.045799
0.039744
0.042060
0.025569
0.036057
0.043963
0.030629
0.019912
0.024452
0.016840
0.011244
0.012886
0.036953
0.017951
0.030876
0.012184
