# vtk DataFile Version 2.0
Unstructured Grid Example
ASCII
DATASET UNSTRUCTURED_GRID
POINTS 1108 float
0.988831 -0.014476 0.002376 
-0.989006 0.014272 -0.002234 
-0.014416 1.014970 -0.003945 
0.014410 -1.015071 0.003983 
0.002361 -0.003840 0.995600 
-0.002411 0.003993 -0.996129 
1.189515 -0.009564 0.001576 
-1.189525 0.009662 -0.001480 
-0.009549 1.214150 -0.002461 
0.009750 -1.214280 0.002598 
0.001525 -0.002559 1.195873 
-0.001502 0.002479 -1.196150 
0.964783 0.181667 0.001467 
0.904517 0.370231 0.000711 
0.810749 0.544864 -0.000036 
0.686989 0.699129 -0.001046 
0.537154 0.828129 -0.001955 
0.366074 0.926449 -0.002711 
0.180033 0.989572 -0.003340 
-0.209283 1.000390 -0.004272 
-0.396842 0.946861 -0.004523 
-0.568470 0.855593 -0.004510 
-0.717593 0.729952 -0.004334 
-0.838194 0.576124 -0.004070 
-0.925021 0.400670 -0.003610 
-0.975755 0.210870 -0.002992 
-0.965022 -0.181785 -0.001386 
-0.904673 -0.370309 -0.000777 
-0.811150 -0.544996 0.000123 
-0.687355 -0.699091 0.001107 
-0.537252 -0.827925 0.001932 
-0.366012 -0.926173 0.002673 
-0.179904 -0.989618 0.003429 
0.209409 -1.000474 0.004376 
0.396936 -0.946773 0.004590 
0.568569 -0.855631 0.004617 
0.717807 -0.729962 0.004411 
0.838203 -0.576143 0.004115 
0.925181 -0.400833 0.003714 
0.975817 -0.211061 0.003130 
0.005235 -0.200750 0.978061 
0.007755 -0.390423 0.923434 
0.010078 -0.565872 0.833367 
0.011903 -0.719800 0.710799 
0.013323 -0.846407 0.560199 
0.014180 -0.940021 0.387642 
0.014769 -0.996652 0.199508 
0.013658 -0.993703 -0.191436 
0.012406 -0.933949 -0.378982 
0.010572 -0.838347 -0.551539 
0.008360 -0.711280 -0.702462 
0.006005 -0.557269 -0.826158 
0.003229 -0.382212 -0.918369 
0.000321 -0.192651 -0.975715 
-0.005058 0.200557 -0.978404 
-0.007664 0.390358 -0.923889 
-0.010012 0.565756 -0.833332 
-0.011770 0.719655 -0.710659 
-0.013166 0.846281 -0.560120 
-0.014050 0.939898 -0.387560 
-0.014632 0.996645 -0.199460 
-0.013565 0.993723 0.191604 
-0.012334 0.934024 0.379236 
-0.010662 0.838694 0.551541 
-0.008415 0.711446 0.702508 
-0.006204 0.557342 0.826213 
-0.003383 0.382381 0.918151 
-0.000399 0.192894 0.975434 
0.970936 -0.014835 0.196436 
0.915740 -0.014800 0.382956 
0.825030 -0.013967 0.554917 
0.702600 -0.012864 0.705832 
0.552860 -0.011314 0.829559 
0.381613 -0.008953 0.921212 
0.195679 -0.006297 0.977289 
-0.191114 -0.000785 0.975437 
-0.376548 0.001796 0.917715 
-0.547847 0.004956 0.825049 
-0.697997 0.007288 0.700843 
-0.821030 0.009695 0.549856 
-0.912524 0.011633 0.378025 
-0.969228 0.013160 0.191705 
-0.970973 0.014697 -0.196285 
-0.915689 0.014772 -0.382804 
-0.824933 0.013844 -0.554772 
-0.702494 0.012798 -0.705764 
-0.552617 0.011088 -0.829710 
-0.381691 0.008666 -0.921526 
-0.195891 0.006304 -0.977816 
0.190902 0.001120 -0.975658 
0.376773 -0.001826 -0.917952 
0.547880 -0.004838 -0.825195 
0.697823 -0.007344 -0.700802 
0.820782 -0.009739 -0.549794 
0.912453 -0.011853 -0.377931 
0.969228 -0.013442 -0.191479 
1.170068 0.177967 0.001155 
1.122951 0.360351 0.000637 
1.049519 0.533602 0.000136 
0.951791 0.694389 -0.000345 
0.831268 0.839158 -0.000595 
0.690291 0.964470 -0.001212 
0.532117 1.067168 -0.001579 
0.360204 1.144584 -0.001918 
0.178174 1.194178 -0.002314 
-0.198064 1.203955 -0.002688 
-0.382299 1.163187 -0.003029 
-0.557803 1.092568 -0.003012 
-0.718544 0.993016 -0.003193 
-0.860285 0.868269 -0.002871 
-0.980170 0.722592 -0.002669 
-1.074742 0.559121 -0.002551 
-1.141607 0.382575 -0.002275 
-1.179903 0.197885 -0.001990 
-1.170342 -0.178115 -0.001121 
-1.123154 -0.360651 -0.000486 
-1.049738 -0.533688 -0.000071 
-0.952070 -0.694719 0.000365 
-0.831112 -0.839470 0.000638 
-0.690139 -0.964515 0.001300 
-0.532026 -1.066994 0.001603 
-0.360171 -1.144433 0.001991 
-0.178167 -1.194242 0.002233 
0.198090 -1.203932 0.002739 
0.382439 -1.163163 0.003018 
0.557854 -1.092588 0.003088 
0.718612 -0.993049 0.003221 
0.860397 -0.868392 0.002928 
0.980321 -0.722708 0.002711 
1.074850 -0.559260 0.002598 
1.141756 -0.382661 0.002317 
1.179964 -0.197872 0.002036 
0.009259 -1.197756 -0.186012 
0.008635 -1.151401 -0.369355 
0.007830 -1.076707 -0.543080 
0.007023 -0.975754 -0.703061 
0.005619 -0.851274 -0.845206 
0.004121 -0.706373 -0.966625 
0.002848 -0.544418 -1.064277 
0.001432 -0.369656 -1.135957 
0.000146 -0.186170 -1.180197 
-0.003220 0.191434 -1.182990 
-0.004469 0.375269 -1.140903 
-0.005708 0.551200 -1.070886 
-0.006812 0.713692 -0.974401 
-0.007680 0.859199 -0.853127 
-0.008861 0.983616 -0.710833 
-0.009155 1.083966 -0.550213 
-0.009487 1.156723 -0.375300 
-0.009704 1.200597 -0.191320 
-0.009269 1.197721 0.185942 
-0.008652 1.151469 0.369454 
-0.007798 1.077230 0.542877 
-0.007184 0.976125 0.703098 
-0.005723 0.851450 0.845342 
-0.003874 0.706399 0.966559 
-0.002881 0.544427 1.064277 
-0.001500 0.369623 1.135792 
-0.000154 0.186039 1.179935 
0.003090 -0.190950 1.182548 
0.004463 -0.375407 1.140630 
0.005826 -0.551066 1.070862 
0.006864 -0.713718 0.974389 
0.007666 -0.859284 0.853248 
0.008932 -0.983716 0.710904 
0.009221 -1.084104 0.550281 
0.009558 -1.156800 0.375308 
0.009755 -1.200618 0.191356 
-1.174185 0.009002 0.184849 
-1.130151 0.008405 0.366831 
-1.058668 0.007316 0.539771 
-0.961113 0.006457 0.699770 
-0.840139 0.004838 0.842384 
-0.698505 0.003427 0.964045 
-0.538847 0.002101 1.062550 
-0.366823 0.000561 1.135553 
-0.185027 -0.000907 1.180302 
0.188164 -0.004055 1.181858 
0.370364 -0.005558 1.138395 
0.543326 -0.006687 1.066815 
0.702909 -0.007415 0.968712 
0.844848 -0.008602 0.846735 
0.965736 -0.009470 0.703841 
1.062362 -0.009604 0.543858 
1.133071 -0.009871 0.370315 
1.175831 -0.009872 0.188196 
1.174047 -0.008988 -0.184816 
1.129975 -0.008371 -0.366724 
1.058349 -0.007296 -0.539697 
0.960907 -0.006342 -0.699678 
0.840100 -0.004850 -0.842233 
0.698621 -0.003569 -0.964052 
0.538933 -0.001997 -1.062831 
0.366584 -0.000468 -1.135795 
0.185258 0.000574 -1.180490 
-0.188140 0.003919 -1.182272 
-0.370401 0.005840 -1.138930 
-0.543456 0.006644 -1.066960 
-0.703177 0.007760 -0.968650 
-0.844840 0.008528 -0.846642 
-0.965668 0.009356 -0.703764 
-1.062274 0.009490 -0.543783 
-1.133009 0.009775 -0.370264 
-1.175860 0.009812 -0.188162 
0.818673 -0.411464 -0.410999 
0.426728 -0.809610 -0.440038 
0.394307 -0.383263 -0.832611 
0.890071 -0.313050 -0.332854 
0.308271 -0.911444 -0.331642 
0.680416 -0.346419 -0.644633 
0.563534 -0.644571 -0.536383 
0.874080 -0.499627 -0.104789 
0.186696 -0.625635 -0.759443 
0.608275 -0.178724 -0.765244 
0.866753 -0.168421 -0.455737 
0.217232 -0.864957 -0.477335 
0.946280 -0.152353 -0.262001 
0.800863 -0.305285 -0.513106 
0.690820 -0.662131 -0.340351 
0.476764 -0.883800 -0.198442 
0.640066 -0.779236 -0.171303 
0.528695 -0.487040 -0.698695 
0.790677 -0.152560 -0.580917 
0.567208 -0.772159 -0.345483 
0.978022 -0.137543 -0.110209 
0.779475 -0.637413 -0.148389 
0.165748 -0.963815 -0.274339 
0.936444 -0.323023 -0.155425 
0.738068 -0.484355 -0.483070 
0.282446 -0.970587 -0.148674 
0.547867 -0.308105 -0.773724 
0.341135 -0.716219 -0.622124 
0.837078 -0.485657 -0.286221 
0.494476 -0.186687 -0.841516 
0.156147 -0.766234 -0.631659 
0.198416 -0.484379 -0.849846 
0.177714 -0.319515 -0.925859 
0.355308 -0.564539 -0.748519 
0.640516 -0.493454 -0.596549 
0.138508 -1.001272 -0.121630 
0.452923 -0.612576 -0.657198 
0.327249 -0.218379 -0.913254 
0.202605 -0.133095 -0.964174 
0.486652 0.582222 -0.635925 
0.487423 0.784416 -0.359499 
0.790625 0.364267 -0.450485 
0.388129 0.469808 -0.784242 
0.334762 0.891015 -0.304284 
0.281940 0.315229 -0.900472 
0.164352 0.166541 -0.967772 
0.747439 0.208858 -0.604822 
0.655054 0.532607 -0.504191 
0.485214 0.846251 -0.172030 
0.590801 0.171711 -0.772661 
0.169536 0.888344 -0.444720 
0.158902 0.480996 -0.862771 
0.538974 0.682133 -0.469593 
0.137151 0.966036 -0.260007 
0.382253 0.138370 -0.904611 
0.116043 0.328098 -0.936318 
0.607444 0.698873 -0.334884 
0.104096 0.634287 -0.773192 
0.155069 0.764635 -0.635449 
0.288853 0.629617 -0.719350 
0.836290 0.475566 -0.169215 
0.594604 0.389933 -0.683146 
0.361278 0.770390 -0.519929 
0.741534 0.546220 -0.333887 
0.110948 0.997604 -0.114859 
0.273684 0.953316 -0.142936 
0.687606 0.683378 -0.148267 
0.931852 0.135050 -0.281610 
0.462160 0.304039 -0.821072 
0.835969 0.400383 -0.312960 
0.861535 0.160548 -0.444313 
0.921264 0.280684 -0.174314 
0.878477 0.273250 -0.336764 
0.967958 0.115390 -0.128896 
0.708823 0.378133 -0.565503 
0.451142 0.453224 0.752898 
0.437128 0.801957 0.378369 
0.814877 0.399931 0.368840 
0.327201 0.308058 0.883412 
0.289050 0.907848 0.292162 
0.888801 0.325138 0.253749 
0.948930 0.154577 0.210104 
0.536844 0.625630 0.538294 
0.102628 0.480003 0.863995 
0.743378 0.154614 0.633692 
0.438268 0.151915 0.877887 
0.412595 0.884070 0.179277 
0.845549 0.460814 0.166332 
0.259639 0.135756 0.950081 
0.238953 0.962321 0.138791 
0.920706 0.309170 0.123191 
0.606607 0.149149 0.769833 
0.508160 0.283442 0.800263 
0.307653 0.626217 0.703474 
0.755246 0.611174 0.112416 
0.649813 0.716002 0.166987 
0.575747 0.486276 0.633505 
0.182441 0.754601 0.623615 
0.741258 0.567580 0.294632 
0.611868 0.677460 0.362103 
0.376694 0.716516 0.568963 
0.534466 0.798935 0.218627 
0.096170 0.996768 0.120052 
0.112029 0.119310 0.981109 
0.453453 0.588965 0.649234 
0.142573 0.612940 0.769928 
0.687661 0.496822 0.493652 
0.631547 0.340285 0.676414 
0.154060 0.306376 0.931944 
0.151570 0.956053 0.264832 
0.770630 0.308269 0.527585 
0.829988 0.127501 0.521710 
0.203380 0.868072 0.448551 
0.873031 0.220528 0.397167 
0.249279 0.473730 0.834586 
0.525313 -0.812604 0.348694 
0.335462 -0.385762 0.869832 
0.341524 -0.896956 0.365990 
0.157555 -0.477156 0.874557 
0.514225 -0.170727 0.843526 
0.441034 -0.909169 0.193704 
0.615799 -0.567183 0.582624 
0.269560 -0.184031 0.946802 
0.242343 -0.978863 0.184748 
0.915154 -0.392913 0.166474 
0.774087 -0.420045 0.501656 
0.747941 -0.682857 0.146131 
0.866792 -0.205248 0.460098 
0.951163 -0.198343 0.236836 
0.511353 -0.336988 0.802060 
0.577997 -0.699396 0.477003 
0.623621 -0.799524 0.168396 
0.718236 -0.660542 0.309667 
[...]
POINT_DATA 1108
SCALARS u float 1
LOOKUP_TABLE default
0.018438
0.018154
0.021154
0.021228
0.006300
0.006061
0.014279
0.014327
0.017248
0.017485
0.005090
0.004819
0.020939
0.023032
0.023324
0.021667
0.018819
0.017024
0.017750
0.024577
0.027369
0.027725
0.025508
0.022005
0.018381
0.016830
0.020674
0.022862
0.022907
0.021345
0.018758
0.017040
0.017900
0.024735
0.027356
0.027822
0.025619
0.022035
0.018571
0.017016
0.008176
0.010965
0.014536
0.017789
0.020544
0.022050
0.022122
0.019150
0.016402
0.013240
0.010435
0.008196
0.006404
0.005636
0.007819
0.010846
0.014404
0.017567
0.020333
0.021858
0.022016
0.019067
0.016338
0.013494
0.010526
0.008322
0.006659
0.005798
0.017858
0.016893
0.015394
0.013690
0.011790
0.009403
0.007226
0.006710
0.008881
0.011200
0.013242
0.015350
0.016911
0.017839
0.017712
0.016891
0.015331
0.013670
0.011609
0.009034
0.007014
0.006714
0.008568
0.011042
0.013411
0.015570
0.017136
0.018091
0.018062
0.021108
0.022645
0.021959
0.019649
0.016380
0.012931
0.011287
0.013290
0.021563
0.024928
0.026910
0.026022
0.023156
0.019801
0.015574
0.011978
0.011645
0.017750
0.020779
0.022412
0.021554
0.019641
0.016510
0.013052
0.011287
0.013325
0.021562
0.024970
0.026961
0.026088
0.023324
0.019980
0.015748
0.012075
0.011614
0.015673
0.013394
0.010976
0.008880
0.007081
0.005970
0.005706
0.005622
0.005265
0.005399
0.006316
0.008747
0.011355
0.013928
0.016504
0.018194
0.018680
0.018530
0.015659
0.013445
0.011350
0.009208
0.007172
0.005855
0.005722
0.005802
0.005554
0.005210
0.006431
0.008722
0.011401
0.014026
0.016644
0.018360
0.018781
0.018582
0.014532
0.014496
0.013776
0.012922
0.011469
0.010217
0.009168
0.006997
0.005686
0.005290
0.006273
0.007251
0.008084
0.009526
0.010854
0.011831
0.012840
0.013637
0.014636
0.014642
0.014038
0.013060
0.011583
0.010184
0.008884
0.006937
0.005369
0.004925
0.006304
0.007139
0.008344
0.009480
0.010797
0.011797
0.012809
0.013571
0.015214
0.018907
0.007876
0.015378
0.020888
0.011660
0.015700
0.019585
0.009504
0.010524
0.014742
0.016731
0.016393
0.013602
0.019939
0.025000
0.024748
0.010917
0.013430
0.021332
0.016998
0.021986
0.020331
0.016879
0.015083
0.024051
0.009445
0.013715
0.017550
0.009044
0.012351
0.007057
0.005768
0.010049
0.012900
0.022278
0.012466
0.006831
0.006055
0.015637
0.017396
0.020411
0.012921
0.016937
0.010028
0.007682
0.017172
0.018871
0.017935
0.013571
0.017901
0.011841
0.017636
0.019154
0.009705
0.009573
0.019385
0.014513
0.016276
0.013735
0.023279
0.016069
0.015830
0.021391
0.019271
0.017350
0.021463
0.019725
0.012521
0.021956
0.019042
0.022184
0.021081
0.020134
0.018630
0.013449
0.016704
0.020982
0.010009
0.015690
0.021369
0.019898
0.017183
0.008557
0.015630
0.010437
0.016952
0.022929
0.007819
0.016538
0.022163
0.013109
0.012512
0.012438
0.022521
0.020826
0.016595
0.011982
0.021445
0.019649
0.014667
0.018660
0.018151
0.006454
0.014916
0.010087
0.019214
0.015806
0.007582
0.016181
0.018404
0.016806
0.014143
0.018933
0.010080
0.028757
0.014532
0.027870
0.014305
0.012239
0.028997
0.022903
0.009806
0.026811
0.019241
0.019997
0.025484
0.016544
0.017214
0.015456
0.026287
0.028373
0.025775
0.007532
0.010452
0.023286
0.025046
0.026496
0.022201
0.024324
0.015426
0.026283
0.020132
0.023653
0.021764
0.018300
0.023401
0.018850
0.018400
0.013806
0.011948
0.018770
0.024002
0.015731
0.017397
0.019887
0.012929
0.016967
0.010292
0.007869
0.017058
0.018787
0.017929
0.013671
0.018042
0.011854
0.017413
0.019209
0.009908
0.009562
0.019170
0.014613
0.016424
0.013923
0.022949
0.016066
0.015996
0.021453
0.019393
0.017376
0.021089
0.019422
0.012608
0.021696
0.018661
0.021806
0.020618
0.019914
0.018433
0.013330
0.016732
0.020955
0.009667
0.015480
0.021382
0.019788
0.017044
0.008325
0.015703
0.010115
0.016899
0.022504
0.007636
0.016630
0.022012
0.013185
0.012482
0.012476
0.022221
0.020438
0.016394
0.012051
0.021523
0.019530
0.014624
0.018607
0.018205
0.006176
0.014898
0.009987
0.018971
0.015739
0.007363
0.016068
0.018354
0.016868
0.014084
0.019159
0.010144
0.028525
0.014321
0.027591
0.013917
0.012142
0.028816
0.022662
0.009451
0.026652
0.019068
0.019830
0.025338
0.016423
0.017072
0.015285
0.026036
0.028241
0.025517
0.007188
0.010202
0.023011
0.024779
0.026270
0.022056
0.024018
0.015287
0.025991
0.019783
0.023443
0.021579
0.018115
0.023154
0.018669
0.018154
0.013768
0.011740
0.018599
0.023888
0.015154
0.019164
0.008010
0.015258
0.021185
0.011634
0.015796
0.019470
0.009655
0.010544
0.014550
0.017078
0.016215
0.013510
0.019869
0.024978
0.024363
0.011016
0.013323
0.021092
0.016764
0.021977
0.020284
0.016678
0.015048
0.024001
0.009505
0.013949
0.017513
0.009171
0.012541
0.007241
0.005877
0.010267
0.012939
0.022092
0.012678
0.006937
0.006151
0.023831
0.018650
0.011645
0.013641
0.026670
0.011679
0.025094
0.008413
0.011317
0.023852
0.005530
0.011850
0.020155
0.016204
0.010531
0.021403
0.008068
0.012457
0.027082
0.020601
0.019156
0.028080
0.010937
0.022336
0.010350
0.021988
0.013807
0.026806
0.011581
0.022136
0.014761
0.015267
0.018907
0.021924
0.018102
0.026511
0.016303
0.009677
0.017844
0.011351
0.014286
0.009094
0.015522
0.012950
0.023814
0.012493
0.025120
0.023860
0.025669
0.016887
0.027838
0.019765
0.024865
0.020694
0.012083
0.023165
0.016006
0.009915
0.022721
0.007126
0.006988
0.006301
0.017108
0.012777
0.008393
0.011267
0.020859
0.012268
0.019980
0.007378
0.012692
0.019452
0.005898
0.015478
0.010145
0.008735
0.013063
0.016454
0.010851
0.008218
0.020380
0.014392
0.014442
0.021834
0.014664
0.017528
0.006986
0.014997
0.011476
0.021773
0.015366
0.017224
0.010928
0.009914
0.013812
0.015531
0.011952
0.019703
0.011128
0.012803
0.014122
0.007997
0.012889
0.010644
0.012712
0.010503
0.018181
0.011419
0.019488
0.017869
0.020705
0.012308
0.021957
0.012960
0.017838
0.016819
0.015344
0.010662
0.017017
0.009863
0.018159
0.008732
0.006131
0.007110
0.015280
0.015162
0.011002
0.008757
0.018456
0.007600
0.018724
0.010423
0.006130
0.015718
0.012315
0.019803
0.009273
0.009316
0.022115
0.007532
0.014743
0.008973
0.016521
0.012506
0.009414
0.013861
0.021242
0.007067
0.009753
0.016053
0.007662
0.015427
0.018746
0.006159
0.013619
0.011928
0.017105
0.017545
0.014027
0.019172
0.011268
0.020829
0.007049
0.010423
0.016711
0.008248
0.018400
0.009819
0.020798
0.009305
0.020453
0.013529
0.010696
0.009836
0.016861
0.017927
0.013794
0.016342
0.005255
0.011909
0.019544
0.012893
0.011477
0.011749
0.011623
0.011020
0.008024
0.013659
0.019500
0.005702
0.010164
0.005399
0.010529
0.006143
0.012159
0.008149
0.018940
0.011803
0.021787
0.005606
0.016310
0.012259
0.024472
0.008641
0.006759
0.008064
0.010391
0.005224
0.011909
0.023818
0.010494
0.006820
0.011366
0.005458
0.011040
0.016914
0.016407
0.022680
0.012081
0.017748
0.013719
0.010264
0.010698
0.005523
0.006334
0.020448
0.015093
0.021139
0.008964
0.023292
0.006129
0.014751
0.004807
0.011792
0.008013
0.010103
0.006417
0.009559
0.007562
0.010717
0.012476
0.005503
0.014296
0.007857
0.020889
0.009652
0.019114
0.018753
0.018133
0.014078
0.009180
0.019890
0.011100
0.018686
0.010435
0.018617
0.011434
0.009596
0.013935
0.011711
0.009104
0.008816
0.014122
0.007055
0.009354
0.015905
0.020378
0.021789
0.015100
0.010378
0.015465
0.008088
0.016357
0.021093
0.011428
0.012277
0.015763
0.011671
0.007090
0.006032
0.013681
0.011549
0.013958
0.015788
0.012909
0.019236
0.007779
0.011545
0.010919
0.009032
0.010493
0.007190
0.016434
0.010408
0.017947
0.010368
0.018756
0.020509
0.021186
0.013161
0.015220
0.017797
0.013816
0.016192
0.016702
0.012540
0.007180
0.018443
0.005893
0.004868
0.008062
0.013568
0.017869
0.005717
0.010234
0.005399
0.010608
0.020194
0.006051
0.012229
0.019781
0.008007
0.019028
0.011589
0.005578
0.016437
0.011759
0.024705
0.008709
0.006780
0.008013
0.010469
0.005208
0.012065
0.015659
0.010431
0.006691
0.011453
0.005350
0.011085
0.016960
0.011823
0.017057
0.013508
0.010075
0.010728
0.005468
0.006353
0.020860
0.014492
0.021061
0.008860
0.023235
0.006006
0.014755
0.004803
0.011882
0.008072
0.010200
0.006377
0.009621
0.007476
0.010686
0.012478
0.005228
0.007645
0.014138
0.021713
0.009717
0.015801
0.024122
0.022934
0.024070
0.018890
0.010678
0.013800
0.026892
0.011814
0.025261
0.011381
0.023938
0.011834
0.020361
0.010597
0.016397
0.010639
0.021639
0.008208
0.012196
0.027278
0.020835
0.019321
0.028228
0.011004
0.022542
0.007588
0.022219
0.013973
0.026943
0.011606
0.022237
0.014932
0.009051
0.006000
0.014665
0.019069
0.022177
0.018121
0.026733
0.016494
0.009786
0.018027
0.010846
0.014017
0.009126
0.015704
0.013058
0.024046
0.012645
0.025372
0.024110
0.025806
0.017072
0.028033
0.019949
0.025079
0.020784
0.012105
0.015956
0.023361
0.007064
0.022908
0.005703
0.005087
0.010252
0.016990
0.019545
0.011510
0.007752
0.012272
0.007378
0.019930
0.015524
0.005792
0.018051
0.018126
0.014102
0.016529
0.014452
0.011184
0.021574
0.015931
0.008879
0.010427
0.013433
0.008101
0.011447
0.008601
0.017866
0.013501
0.014521
0.006653
0.012750
0.006606
0.019405
0.018334
0.016827
0.015225
0.015535
0.010187
0.011448
0.018176
0.012390
0.020310
0.018201
0.020518
0.014233
0.014130
0.012150
0.011713
0.009681
0.010391
0.010426
0.011622
0.007805
0.012646
0.012005
0.005538
0.015448
0.013690
0.014908
0.021419
0.012926
0.021883
0.016677
0.020435
0.006262
0.014032
0.019411
0.011612
0.014558
0.005790
0.007482
0.019858
0.008232
0.005296
0.014976
0.019566
0.015164
0.015380
0.018340
0.019162
0.014161
0.017291
0.011404
0.009728
0.026254
0.021858
0.021140
0.019513
0.019438
0.020837
0.019271
0.019944
0.020152
0.017153
0.007385
0.010990
0.015586
0.025069
0.029317
0.017344
0.020702
0.025279
0.020522
0.019400
0.016066
0.012456
0.011963
0.023459
0.017398
0.012580
0.019036
0.019262
0.007772
0.020198
0.019804
0.014600
0.018194
0.005780
0.008114
0.014531
0.011262
0.024320
0.020969
0.018253
0.020823
0.008745
0.008346
0.006515
0.014784
0.022931
0.006893
0.010613
0.018814
0.021137
0.020451
0.019019
0.007128
0.012103
0.017110
0.009261
0.007666
0.017076
0.017811
0.010600
0.013793
0.017224
0.019658
0.018205
0.021575
0.022531
0.027989
0.024289
0.025704
0.015626
0.022036
0.026867
0.018718
0.012169
0.014943
0.010291
0.006872
0.007875
0.022583
0.010970
0.018869
0.007446
