# vtk DataFile Version 2.0
Unstructured Grid Example
ASCII
DATASET UNSTRUCTURED_GRID
POINTS 1108 float
0.986860 -0.017031 0.002795 
-0.987065 0.016790 -0.002628 
-0.016960 1.017612 -0.004641 
0.016952 -1.017730 0.004686 
0.002777 -0.004518 0.994823 
-0.002836 0.004697 -0.995446 
1.187665 -0.011252 0.001854 
-1.187676 0.011367 -0.001741 
-0.011235 1.216647 -0.002895 
0.011470 -1.216800 0.003057 
0.001795 -0.003011 1.195144 
-0.001767 0.002916 -1.195471 
0.961959 0.179298 0.001726 
0.901100 0.368033 0.000837 
0.807092 0.542974 -0.000043 
0.683439 0.697721 -0.001231 
0.533904 0.827540 -0.002300 
0.363143 0.926903 -0.003189 
0.177376 0.991123 -0.003929 
-0.211788 1.003849 -0.005026 
-0.399340 0.950916 -0.005321 
-0.570747 0.859850 -0.005305 
-0.719443 0.733984 -0.005099 
-0.839380 0.579751 -0.004788 
-0.925222 0.403844 -0.004247 
-0.974867 0.213655 -0.003520 
-0.962240 -0.179437 -0.001630 
-0.901283 -0.368125 -0.000914 
-0.807564 -0.543130 0.000145 
-0.683870 -0.697677 0.001302 
-0.534020 -0.827299 0.002273 
-0.363070 -0.926578 0.003145 
-0.177224 -0.991177 0.004034 
0.211936 -1.003949 0.005148 
0.399451 -0.950813 0.005400 
0.570863 -0.859895 0.005432 
0.719695 -0.733995 0.005189 
0.839391 -0.579774 0.004842 
0.925410 -0.404036 0.004370 
0.974941 -0.213879 0.003683 
0.006158 -0.201748 0.977580 
0.009123 -0.391788 0.923355 
0.011857 -0.567690 0.833702 
0.014004 -0.722040 0.711451 
0.015674 -0.849043 0.561016 
0.016682 -0.942869 0.388516 
0.017375 -0.999452 0.200288 
0.016068 -0.995982 -0.190792 
0.014596 -0.935726 -0.378329 
0.012437 -0.839560 -0.550827 
0.009836 -0.712016 -0.701643 
0.007065 -0.557569 -0.825220 
0.003799 -0.382129 -0.917397 
0.000378 -0.192221 -0.974821 
-0.005950 0.201522 -0.977983 
-0.009016 0.391712 -0.923891 
-0.011779 0.567554 -0.833660 
-0.013847 0.721869 -0.711286 
-0.015490 0.848895 -0.560922 
-0.016530 0.942725 -0.388420 
-0.017215 0.999443 -0.200231 
-0.015959 0.996006 0.190989 
-0.014511 0.935814 0.378627 
-0.012543 0.839969 0.550830 
-0.009900 0.712212 0.701697 
-0.007299 0.557655 0.825285 
-0.003980 0.382327 0.917140 
-0.000469 0.192506 0.974490 
0.969198 -0.017453 0.196673 
0.914304 -0.017411 0.383004 
0.823893 -0.016432 0.554801 
0.701804 -0.015134 0.705607 
0.552382 -0.013310 0.829221 
0.381424 -0.010533 0.920741 
0.195783 -0.007408 0.976672 
-0.190412 -0.000924 0.974494 
-0.375465 0.002113 0.916627 
-0.546484 0.005831 0.823916 
-0.696389 0.008574 0.699737 
-0.819188 0.011405 0.548848 
-0.910520 0.013685 0.377203 
-0.967189 0.015483 0.191107 
-0.969242 0.017291 -0.196496 
-0.914243 0.017379 -0.382826 
-0.823779 0.016287 -0.554631 
-0.701680 0.015056 -0.705527 
-0.552095 0.013045 -0.829400 
-0.381516 0.010195 -0.921111 
-0.196032 0.007416 -0.977291 
0.190163 0.001318 -0.974754 
0.375729 -0.002148 -0.916906 
0.546523 -0.005692 -0.824088 
0.696185 -0.008639 -0.699689 
0.818896 -0.011457 -0.548774 
0.910437 -0.013944 -0.377092 
0.967189 -0.015814 -0.190841 
1.167394 0.176245 0.001358 
1.119718 0.358504 0.000750 
1.046044 0.531628 0.000160 
0.948433 0.692456 -0.000406 
0.828222 0.837504 -0.000700 
0.687636 0.963350 -0.001425 
0.529881 1.066808 -0.001858 
0.358330 1.145170 -0.002257 
0.176490 1.195757 -0.002723 
-0.199889 1.207260 -0.003162 
-0.384325 1.167055 -0.003564 
-0.560099 1.096690 -0.003543 
-0.720874 0.996933 -0.003757 
-0.862360 0.871753 -0.003378 
-0.981820 0.725636 -0.003140 
-1.075718 0.561650 -0.003001 
-1.141667 0.384649 -0.002677 
-1.178964 0.199679 -0.002341 
-1.167715 -0.176420 -0.001319 
-1.119957 -0.358857 -0.000572 
-1.046302 -0.531729 -0.000084 
-0.948761 -0.692844 0.000429 
-0.828039 -0.837871 0.000751 
-0.687456 -0.963403 0.001530 
-0.529774 -1.066603 0.001886 
-0.358291 -1.144992 0.002343 
-0.176481 -1.195832 0.002627 
0.199919 -1.207233 0.003222 
0.384489 -1.167026 0.003550 
0.560160 -1.096714 0.003633 
0.720953 -0.996972 0.003789 
0.862491 -0.871897 0.003445 
0.981998 -0.725773 0.003190 
1.075846 -0.561813 0.003056 
1.141842 -0.384750 0.002726 
1.179035 -0.199664 0.002395 
0.010893 -1.199967 -0.185711 
0.010159 -1.153189 -0.369097 
0.009212 -1.078031 -0.542779 
0.008262 -0.976624 -0.702658 
0.006610 -0.851759 -0.844620 
0.004848 -0.706555 -0.965884 
0.003351 -0.544352 -1.063407 
0.001685 -0.369451 -1.135020 
0.000172 -0.185896 -1.179309 
-0.003788 0.192090 -1.182596 
-0.005257 0.376054 -1.140839 
-0.006715 0.552332 -1.071182 
-0.008014 0.715166 -0.975033 
-0.009035 0.861082 -0.853939 
-0.010425 0.985873 -0.711802 
-0.010771 1.086570 -0.551170 
-0.011161 1.159451 -0.376090 
-0.011416 1.203309 -0.191955 
-0.010905 1.199926 0.185628 
-0.010178 1.153269 0.369213 
-0.009174 1.078646 0.542540 
-0.008452 0.977061 0.702702 
-0.006733 0.851966 0.844780 
-0.004557 0.706585 0.965807 
-0.003389 0.544363 1.063406 
-0.001765 0.369412 1.134826 
-0.000182 0.185742 1.179002 
0.003635 -0.191520 1.182075 
0.005250 -0.376216 1.140518 
0.006854 -0.552173 1.071154 
0.008075 -0.715196 0.975018 
0.009019 -0.861182 0.854081 
0.010508 -0.985992 0.711886 
0.010848 -1.086733 0.551250 
0.011245 -1.159541 0.376099 
0.011477 -1.203335 0.191998 
-1.172237 0.010591 0.184342 
-1.128189 0.009888 0.366126 
-1.056809 0.008607 0.538886 
-0.959400 0.007596 0.698787 
-0.838659 0.005692 0.841300 
-0.697299 0.004031 0.962849 
-0.537799 0.002472 1.061375 
-0.366117 0.000660 1.134545 
-0.184552 -0.001067 1.179433 
0.188243 -0.004771 1.181264 
0.370283 -0.006539 1.137888 
0.543068 -0.007867 1.066393 
0.702480 -0.008724 0.968340 
0.844199 -0.010120 0.846418 
0.964838 -0.011142 0.703576 
1.061154 -0.011299 0.543694 
1.131624 -0.011613 0.370226 
1.174173 -0.011615 0.188280 
1.172074 -0.010574 -0.184304 
1.127982 -0.009849 -0.366001 
1.056433 -0.008584 -0.538799 
0.959158 -0.007461 -0.698679 
0.838613 -0.005705 -0.841122 
0.697435 -0.004199 -0.962858 
0.537900 -0.002349 -1.061706 
0.365836 -0.000550 -1.134829 
0.184823 0.000676 -1.179655 
-0.188214 0.004610 -1.181751 
-0.370327 0.006870 -1.138518 
-0.543221 0.007816 -1.066564 
-0.702795 0.009130 -0.968267 
-0.844189 0.010032 -0.846310 
-0.964759 0.011007 -0.703485 
-1.061050 0.011165 -0.543606 
-1.131551 0.011500 -0.370166 
-1.174208 0.011543 -0.188239 
0.818644 -0.414061 -0.410319 
0.428389 -0.812456 -0.439518 
0.394329 -0.384286 -0.831671 
0.889555 -0.315619 -0.332149 
0.310342 -0.914444 -0.331098 
0.680107 -0.348267 -0.643782 
0.564533 -0.647081 -0.535770 
0.874788 -0.502944 -0.104125 
0.187734 -0.626703 -0.758670 
0.607441 -0.180001 -0.764184 
0.865519 -0.170547 -0.454886 
0.219062 -0.867204 -0.476769 
0.944923 -0.154807 -0.261288 
0.800320 -0.307483 -0.512309 
0.692083 -0.665363 -0.339767 
0.478957 -0.887583 -0.197853 
0.641982 -0.783107 -0.170662 
0.529005 -0.488764 -0.697893 
0.789492 -0.154366 -0.579943 
0.568889 -0.775483 -0.344939 
0.976631 -0.140135 -0.109621 
0.780773 -0.641011 -0.147742 
0.168028 -0.966525 -0.273762 
0.936095 -0.325908 -0.154774 
0.738374 -0.486912 -0.482400 
0.284833 -0.974036 -0.148028 
0.547497 -0.309414 -0.772761 
0.342370 -0.718207 -0.621508 
0.837553 -0.488644 -0.285556 
0.493775 -0.187613 -0.840422 
0.157621 -0.767700 -0.631003 
0.198976 -0.485041 -0.848952 
0.177821 -0.319779 -0.924882 
0.355972 -0.565986 -0.747740 
0.640862 -0.495594 -0.595855 
0.140963 -1.004273 -0.120981 
0.453723 -0.614508 -0.656517 
0.326862 -0.218836 -0.912208 
0.202168 -0.133146 -0.963200 
0.483940 0.582052 -0.635443 
0.484354 0.784358 -0.359477 
0.787464 0.362763 -0.449635 
0.385916 0.469981 -0.783722 
0.331914 0.891864 -0.304598 
0.280320 0.315584 -0.899857 
0.163308 0.167053 -0.967076 
0.744936 0.207514 -0.603769 
0.651929 0.531666 -0.503527 
0.482060 0.846088 -0.172233 
0.588826 0.170895 -0.771580 
0.167002 0.890157 -0.445238 
0.157105 0.482051 -0.862628 
0.535902 0.681772 -0.469253 
0.134524 0.968068 -0.260634 
0.380856 0.138180 -0.903638 
0.114682 0.329034 -0.935961 
0.604125 0.698079 -0.334639 
0.102085 0.635851 -0.773457 
0.152738 0.766270 -0.635824 
0.286572 0.630430 -0.719249 
0.832660 0.473677 -0.168852 
0.592001 0.389237 -0.682264 
0.358555 0.771014 -0.519979 
0.738075 0.544802 -0.333363 
0.108336 0.999685 -0.115503 
0.270885 0.954459 -0.143418 
0.684039 0.682106 -0.148209 
0.929186 0.132934 -0.280879 
0.460152 0.303766 -0.820191 
0.832583 0.398618 -0.312301 
0.858859 0.158755 -0.443358 
0.918030 0.278539 -0.173801 
0.875370 0.271357 -0.335988 
0.965323 0.113067 -0.128365 
0.705886 0.376976 -0.564584 
0.449369 0.452036 0.751860 
0.434349 0.801393 0.377567 
0.811902 0.397805 0.368256 
0.326205 0.307011 0.882396 
0.286404 0.908268 0.291466 
0.885790 0.322887 0.253454 
0.946443 0.152098 0.210099 
0.534237 0.624410 0.537339 
0.101564 0.479837 0.862937 
0.741717 0.152482 0.633143 
0.437490 0.150432 0.877120 
0.409671 0.883989 0.178651 
0.842117 0.458689 0.166059 
0.259253 0.134705 0.949274 
0.236276 0.963319 0.138193 
0.917558 0.306850 0.123142 
0.605416 0.147273 0.769190 
0.506808 0.281955 0.799348 
0.305772 0.625724 0.702455 
0.751688 0.609429 0.112111 
0.646428 0.714657 0.166499 
0.573441 0.484761 0.632522 
0.180522 0.754812 0.622753 
0.738000 0.565746 0.294049 
0.608782 0.676077 0.361337 
0.374358 0.715948 0.568004 
0.531341 0.798119 0.217990 
0.093648 0.998640 0.119424 
0.111963 0.118560 0.980255 
0.451267 0.587910 0.648214 
0.141084 0.612916 0.768951 
0.684913 0.495019 0.492819 
0.629580 0.338506 0.675549 
0.153391 0.305814 0.930931 
0.149089 0.957309 0.264186 
0.768234 0.306195 0.526876 
0.828198 0.125166 0.521342 
0.201077 0.868638 0.447773 
0.870632 0.218231 0.396811 
0.247971 0.473167 0.833520 
0.527707 -0.816915 0.349894 
0.336510 -0.388065 0.870249 
0.344035 -0.901018 0.367168 
0.158974 -0.479206 0.874954 
0.514385 -0.172881 0.843544 
0.443588 -0.913478 0.194753 
0.617386 -0.570752 0.583663 
0.270066 -0.185676 0.946624 
0.244927 -0.982705 0.185721 
0.915540 -0.396222 0.167130 
0.774947 -0.423384 0.502407 
0.749710 -0.686895 0.147020 
0.866486 -0.208133 0.460426 
0.950487 -0.201274 0.237260 
0.512149 -0.339556 0.802518 
0.580034 -0.703388 0.478200 
0.625867 -0.803885 0.169401 
0.720077 -0.664576 0.310678 
[...]
POINT_DATA 1108
SCALARS u float 1
LOOKUP_TABLE default
0.021691
0.021357
0.024887
0.024974
0.007411
0.007131
0.016799
0.016855
0.020291
0.020571
0.005989
0.005669
0.024633
0.027097
0.027439
0.025491
0.022140
0.020028
0.020883
0.028914
0.032198
0.032618
0.030009
0.025888
0.021624
0.019800
0.024323
0.026896
0.026949
0.025112
0.022068
0.020046
0.021058
0.029100
0.032183
0.032731
0.030140
0.025923
0.021849
0.020018
0.009619
0.012900
0.017101
0.020928
0.024169
0.025941
0.026026
0.022530
0.019296
0.015577
0.012276
0.009642
0.007534
0.006630
0.009199
0.012759
0.016946
0.020667
0.023921
0.025716
0.025902
0.022432
0.019221
0.015876
0.012383
0.009791
0.007835
0.006821
0.021009
0.019874
0.018111
0.016106
0.013870
0.011063
0.008502
0.007894
0.010449
0.013176
0.015578
0.018058
0.019895
0.020987
0.020838
0.019872
0.018036
0.016082
0.013657
0.010629
0.008252
0.007899
0.010080
0.012990
0.015778
0.018318
0.020160
0.021284
0.021249
0.024832
0.026641
0.025834
0.023117
0.019271
0.015213
0.013279
0.015636
0.025369
0.029327
0.031658
0.030614
0.027242
0.023295
0.018323
0.014091
0.013699
0.020882
0.024446
0.026367
0.025357
0.023108
0.019423
0.015355
0.013279
0.015676
0.025367
0.029376
0.031719
0.030691
0.027440
0.023506
0.018527
0.014206
0.013663
0.018439
0.015758
0.012913
0.010448
0.008331
0.007024
0.006713
0.006615
0.006194
0.006352
0.007430
0.010290
0.013359
0.016386
0.019416
0.021405
0.021976
0.021800
0.018423
0.015818
0.013353
0.010833
0.008438
0.006888
0.006732
0.006826
0.006534
0.006130
0.007566
0.010261
0.013413
0.016502
0.019581
0.021600
0.022095
0.021862
0.017097
0.017054
0.016207
0.015202
0.013493
0.012020
0.010785
0.008231
0.006689
0.006223
0.007380
0.008531
0.009511
0.011207
0.012769
0.013919
0.015106
0.016043
0.017218
0.017226
0.016516
0.015365
0.013627
0.011981
0.010452
0.008161
0.006316
0.005794
0.007417
0.008399
0.009816
0.011153
0.012702
0.013878
0.015070
0.015966
0.017898
0.022244
0.009266
0.018092
0.024575
0.013718
0.018470
0.023041
0.011181
0.012381
0.017343
0.019684
0.019286
0.016003
0.023457
0.029412
0.029115
0.012844
0.015800
0.025097
0.019997
0.025865
0.023918
0.019858
0.017744
0.028296
0.011112
0.016135
0.020647
0.010640
0.014530
0.008303
0.006786
0.011822
0.015177
0.026210
0.014666
0.008037
0.007124
0.018396
0.020466
0.024013
0.015201
0.019925
0.011797
0.009037
0.020202
0.022201
0.021100
0.015966
0.021060
0.013930
0.020748
0.022534
0.011418
0.011263
0.022806
0.017074
0.019148
0.016159
0.027386
0.018904
0.018624
0.025166
0.022672
0.020411
0.025251
0.023206
0.014730
0.025831
0.022402
0.026099
0.024801
0.023687
0.021918
0.015822
0.019651
0.024685
0.011775
0.018459
0.025140
0.023409
0.020215
0.010067
0.018388
0.012279
0.019943
0.026975
0.009198
0.019456
0.026074
0.015422
0.014720
0.014633
0.026495
0.024501
0.019524
0.014096
0.025230
0.023116
0.017255
0.021953
0.021354
0.007593
0.017548
0.011868
0.022604
0.018595
0.008920
0.019036
0.021652
0.019772
0.016639
0.022274
0.011858
0.033832
0.017096
0.032788
0.016829
0.014399
0.034114
0.026945
0.011536
0.031542
0.022636
0.023526
0.029980
0.019463
0.020252
0.018183
0.030926
0.033380
0.030323
0.008861
0.012297
0.027395
0.029466
0.031172
0.026119
0.028617
0.018148
0.030921
0.023685
0.027827
0.025605
0.021530
0.027531
0.022177
0.021647
0.016242
0.014056
0.022082
0.028237
0.018507
0.020467
0.023396
0.015210
0.019961
0.012108
0.009257
0.020069
0.022102
0.021093
0.016084
0.021226
0.013946
0.020486
0.022598
0.011657
0.011249
0.022553
0.017192
0.019322
0.016380
0.026999
0.018902
0.018819
0.025238
0.022815
0.020442
0.024811
0.022850
0.014833
0.025525
0.021954
0.025653
0.024256
0.023428
0.021686
0.015682
0.019685
0.024652
0.011373
0.018211
0.025155
0.023280
0.020051
0.009794
0.018475
0.011900
0.019881
0.026475
0.008984
0.019565
0.025896
0.015512
0.014685
0.014677
0.026142
0.024045
0.019286
0.014177
0.025321
0.022977
0.017205
0.021890
0.021417
0.007266
0.017527
0.011750
0.022318
0.018516
0.008662
0.018903
0.021593
0.019844
0.016569
0.022540
0.011934
0.033559
0.016848
0.032460
0.016373
0.014285
0.033902
0.026661
0.011119
0.031355
0.022433
0.023330
0.029809
0.019322
0.020084
0.017982
0.030631
0.033224
0.030020
0.008457
0.012002
0.027071
0.029151
0.030906
0.025948
0.028257
0.017985
0.030578
0.023274
0.027579
0.025387
0.021312
0.027239
0.021964
0.021357
0.016198
0.013811
0.021882
0.028103
0.017828
0.022546
0.009424
0.017950
0.024923
0.013687
0.018584
0.022906
0.011358
0.012405
0.017117
0.020092
0.019077
0.015894
0.023375
0.029386
0.028662
0.012960
0.015674
0.024814
0.019722
0.025855
0.023863
0.019621
0.017704
0.028237
0.011182
0.016411
0.020604
0.010789
0.014754
0.008519
0.006914
0.012079
0.015223
0.025991
0.014915
0.008161
0.007237
0.028036
0.021941
0.013700
0.016049
0.031377
0.013741
0.029522
0.009897
0.013314
0.028061
0.006506
0.013941
0.023711
0.019064
0.012389
0.025180
0.009491
0.014656
0.031861
0.024236
0.022536
0.033036
0.012867
0.026277
0.012177
0.025869
0.016244
0.031537
0.013625
0.026042
0.017366
0.017961
0.022244
0.025793
0.021297
0.031189
0.019180
0.011385
0.020993
0.013354
0.016807
0.010699
0.018262
0.015235
0.028017
0.014697
0.029552
0.028070
0.030199
0.019867
0.032751
0.023253
0.029252
0.024346
0.014216
0.027253
0.018831
0.011665
0.026730
0.008384
0.008222
0.007412
0.020127
0.015032
0.009874
0.013256
0.024540
0.014432
0.023505
0.008680
0.014932
0.022885
0.006939
0.018209
0.011935
0.010276
0.015368
0.019358
0.012766
0.009669
0.023977
0.016932
0.016991
0.025687
0.017252
0.020621
0.008219
0.017643
0.013501
0.025616
0.018078
0.020263
0.012856
0.011663
0.016249
0.018271
0.014062
0.023180
0.013092
0.015062
0.016614
0.009408
0.015163
0.012522
0.014956
0.012357
0.021389
0.013434
0.022927
0.021023
0.024359
0.014480
0.025832
0.015247
0.020985
0.019787
0.018051
0.012544
0.020020
0.011603
0.021363
0.010273
0.007213
0.008364
0.017976
0.017838
0.012943
0.010302
0.021712
0.008941
0.022028
0.012262
0.007211
0.018492
0.014489
0.023298
0.010909
0.010960
0.026017
0.008861
0.017344
0.010556
0.019436
0.014713
0.011075
0.016307
0.024990
0.008314
0.011474
0.018886
0.009014
0.018149
0.022054
0.007246
0.016022
0.014033
0.020123
0.020641
0.016502
0.022556
0.013257
0.024504
0.008292
0.012263
0.019660
0.009704
0.021647
0.011552
0.024469
0.010948
0.024062
0.015917
0.012584
0.011572
0.019836
0.021091
0.016228
0.019226
0.006182
0.014011
0.022993
0.015168
0.013502
0.013823
0.013674
0.012964
0.009440
0.016070
0.022941
0.006709
0.011958
0.006351
0.012387
0.007227
0.014305
0.009587
0.022283
0.013885
0.025632
0.006596
0.019188
0.014423
0.028790
0.010166
0.007952
0.009488
0.012225
0.006146
0.014011
0.028021
0.012346
0.008023
0.013371
0.006421
0.012988
0.019899
0.019302
0.026683
0.014213
0.020880
0.016139
0.012076
0.012586
0.006498
0.007452
0.024057
0.017757
0.024869
0.010546
0.027402
0.007210
0.017354
0.005655
0.013873
0.009427
0.011885
0.007550
0.011246
0.008896
0.012608
0.014677
0.006474
0.016818
0.009243
0.024575
0.011356
0.022487
0.022062
0.021333
0.016562
0.010800
0.023400
0.013059
0.021984
0.012277
0.021902
0.013452
0.011289
0.016394
0.013777
0.010711
0.010372
0.016614
0.008300
0.011005
0.018712
0.023973
0.025634
0.017765
0.012209
0.018193
0.009515
0.019243
0.024815
0.013445
0.014444
0.018544
0.013731
0.008341
0.007097
0.016095
0.013587
0.016421
0.018574
0.015187
0.022630
0.009151
0.013582
0.012846
0.010625
0.012345
0.008459
0.019334
0.012245
0.021115
0.012197
0.022066
0.024128
0.024925
0.015484
0.017906
0.020937
0.016255
0.019049
0.019649
0.014753
0.008446
0.021698
0.006933
0.005727
0.009485
0.015962
0.021023
0.006725
0.012040
0.006352
0.012480
0.023757
0.007118
0.014387
0.023272
0.009420
0.022386
0.013634
0.006562
0.019337
0.013834
0.029064
0.010245
0.007977
0.009427
0.012316
0.006127
0.014194
0.018422
0.012272
0.007872
0.013475
0.006294
0.013041
0.019953
0.013909
0.020067
0.015891
0.011853
0.012621
0.006433
0.007474
0.024541
0.017049
0.024778
0.010424
0.027336
0.007066
0.017359
0.005651
0.013979
0.009497
0.012000
0.007502
0.011319
0.008795
0.012571
0.014680
0.006151
0.008994
0.016633
0.025544
0.011432
0.018590
0.028379
0.026981
0.028317
0.022224
0.012562
0.016235
0.031637
0.013898
0.029719
0.013389
0.028163
0.013922
0.023954
0.012467
0.019290
0.012517
0.025457
0.009657
0.014349
0.032091
0.024512
0.022730
0.033210
0.012946
0.026520
0.008927
0.026140
0.016439
0.031698
0.013654
0.026161
0.017567
0.010649
0.007059
0.017253
0.022434
0.026091
0.021319
0.031450
0.019405
0.011513
0.021209
0.012760
0.016490
0.010736
0.018475
0.015362
0.028290
0.014877
0.029849
0.028365
0.030359
0.020085
0.032980
0.023469
0.029504
0.024452
0.014241
0.018772
0.027483
0.008310
0.026951
0.006710
0.005985
0.012061
0.019988
0.022994
0.013541
0.009120
0.014438
0.008680
0.023447
0.018264
0.006814
0.021236
0.021325
0.016591
0.019446
0.017003
0.013158
0.025382
0.018742
0.010446
0.012267
0.015803
0.009531
0.013467
0.010119
0.021018
0.015883
0.017084
0.007827
0.015000
0.007772
0.022830
0.021569
0.019796
0.017911
0.018276
0.011985
0.013468
0.021384
0.014576
0.023894
0.021412
0.024139
0.016744
0.016624
0.014295
0.013780
0.011389
0.012224
0.012265
0.013673
0.009183
0.014878
0.014123
0.006515
0.018174
0.016106
0.017539
0.025199
0.015206
0.025745
0.019621
0.024041
0.007367
0.016508
0.022837
0.013661
0.017127
0.006811
0.008802
0.023362
0.009685
0.006231
0.017619
0.023019
0.017840
0.018094
0.021576
0.022544
0.016659
0.020343
0.013416
0.011445
0.030887
0.025715
0.024870
0.022957
0.022868
0.024514
0.022672
0.023463
0.023708
0.020180
0.008688
0.012929
0.018336
0.029493
0.034490
0.020405
0.024356
0.029739
0.024144
0.022824
0.018901
0.014654
0.014074
0.027599
0.020468
0.014800
0.022396
0.022661
0.009143
0.023762
0.023298
0.017177
0.021404
0.006800
0.009546
0.017095
0.013250
0.028611
0.024669
0.021474
0.024498
0.010288
0.009819
0.007664
0.017392
0.026978
0.008109
0.012485
0.022134
0.024867
0.024060
0.022376
0.008385
0.014239
0.020129
0.010895
0.009019
0.020089
0.020954
0.012470
0.016227
0.020263
0.023127
0.021417
0.025383
0.026507
0.032929
0.028575
0.030240
0.018383
0.025924
0.031608
0.022022
0.014316
0.017580
0.012107
0.008084
0.009264
0.026568
0.012906
0.022199
0.008760
