# vtk DataFile Version 2.0
Unstructured Grid Example
ASCII
DATASET UNSTRUCTURED_GRID
POINTS 1108 float
1.002120 0.000812 -0.020012 
-1.002121 -0.000787 0.019823 
0.001039 1.011610 -0.003056 
-0.000898 -1.011873 0.003176 
-0.019693 -0.003078 0.986130 
0.019609 0.003190 -0.986242 
1.202024 0.000564 -0.013261 
-1.201992 -0.000359 0.013272 
0.000736 1.211245 -0.002073 
-0.000677 -1.211081 0.002249 
-0.013153 -0.002077 1.186947 
0.013222 0.002154 -1.186876 
0.983175 0.197483 -0.020126 
0.926712 0.386998 -0.019594 
0.834879 0.561928 -0.018159 
0.710858 0.715278 -0.016320 
0.559187 0.841368 -0.013254 
0.385577 0.935056 -0.010249 
0.197050 0.992580 -0.006846 
-0.195024 0.991513 0.000518 
-0.383686 0.933499 0.004458 
-0.556998 0.839576 0.008481 
-0.708981 0.713331 0.011981 
-0.833770 0.559929 0.014597 
-0.925724 0.385120 0.017257 
-0.982749 0.195933 0.018827 
-0.983187 -0.197321 0.019959 
-0.926452 -0.386842 0.019431 
-0.834371 -0.561700 0.018027 
-0.710380 -0.715143 0.016178 
-0.558937 -0.841376 0.013427 
-0.385456 -0.935078 0.010523 
-0.197036 -0.992506 0.006799 
0.195306 -0.991836 -0.000530 
0.383736 -0.933903 -0.004404 
0.557086 -0.839726 -0.008693 
0.708945 -0.713361 -0.011930 
0.833740 -0.559981 -0.014616 
0.925647 -0.385080 -0.017299 
0.982760 -0.195870 -0.018879 
-0.019415 -0.198922 0.968646 
-0.018546 -0.387606 0.914308 
-0.016737 -0.562211 0.825068 
-0.014486 -0.715626 0.703841 
-0.011780 -0.842080 0.554478 
-0.008211 -0.935713 0.383612 
-0.004574 -0.993215 0.197337 
0.002966 -0.990893 -0.191165 
0.006694 -0.931385 -0.377150 
0.010279 -0.836099 -0.547811 
0.013258 -0.708997 -0.696991 
0.015715 -0.555336 -0.819078 
0.017809 -0.381072 -0.909798 
0.018982 -0.192563 -0.966279 
0.019389 0.198870 -0.968690 
0.018337 0.387585 -0.914670 
0.016883 0.562257 -0.825116 
0.014573 0.715586 -0.703676 
0.011745 0.841984 -0.554372 
0.008348 0.935689 -0.383490 
0.004747 0.993200 -0.197273 
-0.002802 0.990903 0.191224 
-0.006770 0.931495 0.376885 
-0.010285 0.836042 0.547876 
-0.013366 0.709080 0.697083 
-0.015858 0.555391 0.818962 
-0.017870 0.381181 0.910024 
-0.019110 0.192677 0.966425 
0.975094 0.000194 0.173355 
0.910914 -0.000487 0.357940 
0.812676 -0.000946 0.528240 
0.685381 -0.001439 0.677908 
0.532927 -0.002171 0.802427 
0.360585 -0.002529 0.897765 
0.174389 -0.002789 0.960173 
-0.214534 -0.003067 0.974789 
-0.402770 -0.003360 0.925849 
-0.576188 -0.002939 0.840226 
-0.727949 -0.002743 0.719998 
-0.851050 -0.002573 0.571596 
-0.939315 -0.001794 0.400239 
-0.990390 -0.001343 0.213691 
-0.975068 -0.000153 -0.173508 
-0.911076 0.000474 -0.358120 
-0.813032 0.000888 -0.528322 
-0.685624 0.001431 -0.678011 
-0.533095 0.002005 -0.802124 
-0.360573 0.002472 -0.897725 
-0.174438 0.002844 -0.960197 
0.214367 0.003249 -0.974787 
0.402685 0.003358 -0.925782 
0.575979 0.003056 -0.840118 
0.727798 0.002802 -0.720012 
0.851069 0.002543 -0.571561 
0.939334 0.001931 -0.400349 
0.990200 0.001436 -0.213733 
1.187501 0.189279 -0.013305 
1.144056 0.373508 -0.013243 
1.072767 0.548674 -0.012605 
0.974678 0.710747 -0.012040 
0.852541 0.855752 -0.010985 
0.709396 0.979393 -0.009117 
0.548351 1.079214 -0.007745 
0.373558 1.152322 -0.005908 
0.189398 1.196587 -0.004335 
-0.187977 1.195866 0.000180 
-0.372168 1.150739 0.002550 
-0.546757 1.077632 0.004034 
-0.707938 0.977519 0.005742 
-0.850857 0.853945 0.007571 
-0.972879 0.709513 0.009714 
-1.071535 0.547350 0.010754 
-1.143037 0.372470 0.011758 
-1.186985 0.188367 0.012623 
-1.187421 -0.189288 0.013366 
-1.143802 -0.373409 0.013213 
-1.072363 -0.548541 0.012632 
-0.974282 -0.710501 0.011947 
-0.852526 -0.855575 0.010651 
-0.709379 -0.979226 0.009073 
-0.548244 -1.079232 0.007655 
-0.373494 -1.152264 0.005940 
-0.189384 -1.196643 0.004353 
0.188142 -1.195944 -0.000138 
0.372311 -1.151069 -0.002480 
0.546976 -1.077785 -0.004096 
0.708071 -0.977643 -0.005868 
0.850952 -0.853864 -0.007660 
0.972912 -0.709459 -0.009903 
1.071533 -0.547301 -0.010815 
1.143018 -0.372413 -0.011769 
1.187001 -0.188259 -0.012682 
0.001720 -1.195065 -0.185291 
0.003497 -1.148970 -0.368059 
0.005517 -1.074227 -0.540807 
0.006986 -0.973166 -0.699402 
0.008920 -0.848583 -0.840693 
0.010650 -0.703520 -0.960617 
0.011405 -0.542291 -1.056851 
0.012200 -0.368167 -1.127567 
0.012883 -0.185365 -1.171371 
0.013011 0.189740 -1.173449 
0.012665 0.372902 -1.131911 
0.012025 0.547937 -1.062398 
0.011091 0.710047 -0.966836 
0.009763 0.855040 -0.846597 
0.007885 0.979080 -0.705797 
0.006436 1.079478 -0.546244 
0.004991 1.153041 -0.372537 
0.002658 1.197095 -0.189851 
-0.001812 1.194892 0.185194 
-0.003467 1.149117 0.367907 
-0.005108 1.073943 0.541278 
-0.006951 0.973093 0.699400 
-0.008921 0.848666 0.840654 
-0.010841 0.703539 0.960871 
-0.011500 0.542333 1.056916 
-0.012300 0.368186 1.127745 
-0.012939 0.185299 1.171425 
-0.013145 -0.189626 1.173475 
-0.012666 -0.373012 1.131679 
-0.012011 -0.547804 1.062358 
-0.011134 -0.709963 0.967046 
-0.009705 -0.855008 0.846754 
-0.007838 -0.979145 0.705923 
-0.006408 -1.079563 0.546325 
-0.004954 -1.153063 0.372649 
-0.002604 -1.197145 0.190067 
-1.193960 -0.000866 0.200380 
-1.155363 -0.000955 0.384405 
-1.087057 -0.001454 0.559398 
-0.989916 -0.001438 0.720422 
-0.866946 -0.002043 0.862069 
-0.722848 -0.002048 0.981585 
-0.560172 -0.002088 1.076232 
-0.384367 -0.002023 1.142034 
-0.200319 -0.002160 1.179143 
0.173060 -0.001863 1.165658 
0.353943 -0.001842 1.116719 
0.525093 -0.001613 1.041385 
0.683612 -0.001293 0.942499 
0.826897 -0.001075 0.822092 
0.950394 -0.000887 0.681349 
1.051810 -0.000376 0.524014 
1.129483 -0.000016 0.353490 
1.180337 0.000240 0.173315 
1.193902 0.000932 -0.200587 
1.155474 0.001220 -0.384338 
1.087161 0.001477 -0.559401 
0.989782 0.001553 -0.720355 
0.866986 0.001992 -0.861976 
0.722886 0.001923 -0.981524 
0.560125 0.002057 -1.076119 
0.384184 0.002098 -1.142076 
0.200323 0.002107 -1.179032 
-0.173179 0.001827 -1.165779 
-0.354139 0.001801 -1.116716 
-0.525083 0.001695 -1.041208 
-0.683697 0.001607 -0.942860 
-0.827012 0.001063 -0.822246 
-0.950622 0.000844 -0.681530 
-1.052114 0.000322 -0.524187 
-1.129616 -0.000013 -0.353558 
-1.180333 -0.000209 -0.173357 
0.833408 -0.400670 -0.428770 
0.427661 -0.800744 -0.445960 
0.412070 -0.378377 -0.839400 
0.906031 -0.300891 -0.352604 
0.303594 -0.903329 -0.335678 
0.700494 -0.338313 -0.660341 
0.571926 -0.636147 -0.546288 
0.875578 -0.485130 -0.123555 
0.195463 -0.621842 -0.758040 
0.633075 -0.171079 -0.780487 
0.890657 -0.156696 -0.476633 
0.216535 -0.859148 -0.478286 
0.965635 -0.138766 -0.283665 
0.821152 -0.295264 -0.531773 
0.694876 -0.650502 -0.354028 
0.469985 -0.871733 -0.207110 
0.635680 -0.765171 -0.184450 
0.543747 -0.480543 -0.708843 
0.816960 -0.142252 -0.600887 
0.567771 -0.761091 -0.355257 
0.992140 -0.123024 -0.132093 
0.778750 -0.623150 -0.164687 
0.157949 -0.958018 -0.275712 
0.946021 -0.308973 -0.175988 
0.751865 -0.474763 -0.498640 
0.272242 -0.961240 -0.153525 
0.568974 -0.301725 -0.786185 
0.347291 -0.709797 -0.625768 
0.845837 -0.473313 -0.303773 
0.518002 -0.180693 -0.853255 
0.160087 -0.762193 -0.630260 
0.211800 -0.481304 -0.848726 
0.195017 -0.316998 -0.924011 
0.367087 -0.559153 -0.753177 
0.655191 -0.485685 -0.609465 
0.126446 -0.995066 -0.123817 
0.463177 -0.605942 -0.664565 
0.348350 -0.214585 -0.918031 
0.224025 -0.130558 -0.963687 
0.519632 0.594394 -0.649296 
0.516934 0.797887 -0.371008 
0.826024 0.380914 -0.471994 
0.419320 0.477971 -0.794056 
0.360224 0.899802 -0.311289 
0.310526 0.319634 -0.904898 
0.189621 0.167937 -0.965866 
0.781715 0.222617 -0.626174 
0.689794 0.548649 -0.522369 
0.510727 0.859478 -0.182807 
0.622794 0.181946 -0.789794 
0.194836 0.891108 -0.445957 
0.186918 0.482489 -0.861970 
0.571459 0.696978 -0.484006 
0.158973 0.967927 -0.261122 
0.410460 0.144288 -0.913370 
0.142504 0.328324 -0.932520 
0.638888 0.715249 -0.350301 
0.131600 0.634264 -0.770531 
0.182493 0.766490 -0.635651 
0.318609 0.635625 -0.724710 
0.866129 0.493954 -0.189157 
0.629223 0.402946 -0.700637 
0.390685 0.779958 -0.528196 
0.775342 0.564349 -0.353061 
0.129502 0.998564 -0.116050 
0.295173 0.959629 -0.148121 
0.715757 0.700711 -0.164342 
0.959696 0.150762 -0.304286 
0.493678 0.312957 -0.834177 
0.869258 0.418226 -0.334037 
0.894492 0.175661 -0.467131 
0.949026 0.297862 -0.195967 
0.910826 0.290073 -0.359145 
0.990354 0.131271 -0.151103 
0.744452 0.393426 -0.585863 
0.442565 0.456891 0.733504 
0.445727 0.809078 0.367134 
0.820601 0.412169 0.348659 
0.312486 0.310628 0.864641 
0.300061 0.912418 0.284890 
0.898647 0.339215 0.233012 
0.956823 0.169431 0.187663 
0.538639 0.632285 0.522391 
0.091601 0.479248 0.853264 
0.732867 0.164846 0.608339 
0.420598 0.157254 0.854735 
0.427686 0.892558 0.170401 
0.861814 0.476079 0.147396 
0.240890 0.138673 0.931246 
0.253580 0.966599 0.133522 
0.936352 0.324755 0.102491 
0.591204 0.157089 0.743798 
0.494639 0.288542 0.777557 
0.303151 0.627805 0.689764 
0.775055 0.626445 0.095890 
0.667329 0.729306 0.152578 
0.572128 0.492759 0.614147 
0.180964 0.754640 0.614078 
0.752817 0.580260 0.277386 
0.621252 0.687632 0.347062 
0.377890 0.720343 0.556271 
0.549413 0.809601 0.207005 
0.109939 0.996711 0.118308 
0.092423 0.120637 0.967556 
0.450454 0.593381 0.632756 
0.135818 0.612373 0.759460 
0.689390 0.506262 0.474651 
0.623402 0.347771 0.653705 
0.138617 0.306880 0.917995 
0.162044 0.957412 0.260578 
0.767291 0.318541 0.505308 
0.822315 0.139464 0.496815 
0.208386 0.869559 0.441435 
0.873592 0.233247 0.374272 
0.238663 0.474279 0.819733 
0.504591 -0.794352 0.330725 
0.309848 -0.375095 0.847495 
0.320326 -0.882483 0.352714 
0.131490 -0.469767 0.859270 
0.491182 -0.160079 0.816531 
0.423571 -0.893407 0.180626 
0.591561 -0.548856 0.557067 
0.245951 -0.177246 0.926360 
0.224453 -0.967882 0.176862 
0.908975 -0.376135 0.144021 
0.754108 -0.402187 0.474720 
0.735565 -0.664595 0.126893 
0.853094 -0.189553 0.433524 
0.947820 -0.182409 0.212793 
0.486311 -0.323786 0.775237 
0.555456 -0.680495 0.455067 
0.608241 -0.781237 0.151235 
0.700232 -0.641542 0.287913 
[...]
POINT_DATA 1108
SCALARS u float 1
LOOKUP_TABLE default
0.020140
0.019952
0.012051
0.012323
0.024283
0.024165
0.013427
0.013425
0.011459
0.011327
0.018647
0.018754
0.020408
0.020262
0.019539
0.018633
0.016933
0.015438
0.013778
0.010740
0.010649
0.011819
0.013630
0.015407
0.017526
0.018948
0.020227
0.020037
0.019260
0.018358
0.017022
0.015615
0.013689
0.011066
0.010999
0.012084
0.013595
0.015435
0.017554
0.018998
0.023216
0.021443
0.019111
0.017120
0.015892
0.014433
0.013434
0.011242
0.011479
0.013685
0.016783
0.020014
0.022761
0.024023
0.023163
0.021097
0.019238
0.017205
0.015810
0.014485
0.013470
0.011187
0.011724
0.013634
0.016823
0.020198
0.022662
0.024026
0.022469
0.027939
0.033181
0.036424
0.036890
0.034303
0.029346
0.020577
0.020461
0.022592
0.024659
0.025433
0.023445
0.020977
0.022327
0.027704
0.032912
0.036196
0.037018
0.034337
0.029300
0.020448
0.020371
0.022375
0.024546
0.025422
0.023551
0.020934
0.013588
0.013797
0.013662
0.013750
0.013747
0.013155
0.013145
0.012829
0.012275
0.010645
0.009900
0.009545
0.009197
0.009597
0.010771
0.011298
0.012004
0.012761
0.013635
0.013701
0.013550
0.013466
0.013382
0.013010
0.013078
0.012781
0.012332
0.010727
0.010219
0.009753
0.009403
0.009645
0.010927
0.011344
0.012005
0.012817
0.010279
0.008898
0.008455
0.009465
0.011873
0.014862
0.017000
0.018536
0.019066
0.017665
0.015883
0.014173
0.012690
0.011893
0.011428
0.012207
0.012902
0.012348
0.010154
0.009062
0.007800
0.009423
0.011900
0.014825
0.017011
0.018469
0.019072
0.017734
0.016037
0.014152
0.012632
0.011803
0.011449
0.012274
0.012923
0.012424
0.015404
0.019599
0.023112
0.024374
0.022951
0.020652
0.017040
0.013719
0.014155
0.024522
0.029848
0.034127
0.035721
0.034175
0.031523
0.027100
0.020957
0.015215
0.015546
0.019648
0.023195
0.024235
0.022924
0.020641
0.016947
0.013551
0.014199
0.024352
0.029737
0.034281
0.035396
0.033983
0.031237
0.026771
0.020826
0.015177
0.020531
0.012988
0.017971
0.020590
0.011391
0.021448
0.016507
0.016555
0.015907
0.022104
0.023333
0.012109
0.021138
0.022415
0.016670
0.012167
0.013945
0.018017
0.024324
0.014386
0.019569
0.015528
0.011006
0.018647
0.020094
0.010794
0.020286
0.014018
0.018497
0.020337
0.013981
0.017689
0.019403
0.015801
0.019404
0.011061
0.015802
0.018980
0.020003
0.023436
0.021190
0.025506
0.021876
0.018680
0.020459
0.020668
0.026038
0.024753
0.018763
0.024194
0.017522
0.019397
0.023385
0.015795
0.021113
0.020399
0.022307
0.018413
0.018196
0.020465
0.021558
0.025158
0.020984
0.023794
0.014150
0.016060
0.020337
0.022795
0.022929
0.023688
0.025377
0.021575
0.024042
0.020778
0.025813
0.031546
0.017765
0.025991
0.032054
0.013785
0.023577
0.023320
0.024953
0.023951
0.034793
0.035398
0.014867
0.020976
0.031550
0.013191
0.021233
0.037131
0.035178
0.024715
0.019031
0.018168
0.030067
0.019027
0.021797
0.021139
0.021771
0.016619
0.011819
0.027313
0.027099
0.022072
0.027474
0.033783
0.027657
0.012138
0.031302
0.032363
0.014817
0.028116
0.027722
0.014633
0.028135
0.012851
0.022639
0.034873
0.011606
0.024956
0.029952
0.011511
0.019256
0.027273
0.015119
0.029143
0.022810
0.031788
0.019090
0.013407
0.018143
0.026494
0.025375
0.015831
0.013426
0.016407
0.017189
0.021374
0.033709
0.014062
0.026120
0.022784
0.021037
0.030732
0.019513
0.019143
0.023314
0.035267
0.032487
0.023987
0.011839
0.023597
0.021330
0.025209
0.022165
0.018900
0.020432
0.020572
0.025900
0.024896
0.018964
0.024510
0.017530
0.019519
0.023027
0.015645
0.021200
0.020392
0.022289
0.018313
0.018176
0.020492
0.021149
0.025280
0.021028
0.023642
0.014143
0.016157
0.020163
0.022605
0.022925
0.023733
0.025267
0.021288
0.023878
0.020710
0.025977
0.030963
0.017566
0.025528
0.032089
0.013910
0.023403
0.023195
0.025023
0.023850
0.034759
0.035357
0.014945
0.020785
0.031427
0.013121
0.021049
0.036738
0.035101
0.024364
0.018740
0.018235
0.029932
0.018541
0.021688
0.021106
0.021687
0.016698
0.011947
0.027333
0.026503
0.022029
0.027302
0.033481
0.027746
0.012355
0.031013
0.032025
0.014910
0.028077
0.027709
0.014517
0.028069
0.012808
0.022674
0.035075
0.011463
0.024875
0.029947
0.011355
0.019224
0.027097
0.015083
0.028992
0.022672
0.031642
0.019146
0.013175
0.018032
0.026326
0.025222
0.015738
0.013457
0.016432
0.017209
0.021328
0.033605
0.014083
0.026058
0.022609
0.020778
0.030589
0.019326
0.019101
0.023174
0.035191
0.032557
0.023766
0.011689
0.020538
0.012984
0.018103
0.020684
0.011447
0.021455
0.016490
0.016584
0.015932
0.022211
0.023376
0.011734
0.021007
0.022406
0.016613
0.011990
0.013568
0.018051
0.024351
0.014285
0.019485
0.015464
0.011010
0.018685
0.020085
0.010628
0.020393
0.014203
0.018464
0.020481
0.014066
0.017791
0.019481
0.015950
0.019387
0.010925
0.015951
0.019058
0.020054
0.014933
0.022719
0.023962
0.017049
0.008834
0.016844
0.009424
0.025430
0.013551
0.010569
0.022956
0.030948
0.012525
0.016720
0.028470
0.010149
0.033871
0.015852
0.010161
0.015300
0.011735
0.008452
0.022119
0.010974
0.019981
0.019330
0.013326
0.009377
0.016661
0.011233
0.025315
0.027315
0.018425
0.017915
0.023486
0.010009
0.021072
0.032704
0.010881
0.031129
0.020297
0.034482
0.012619
0.026755
0.010310
0.022214
0.009174
0.011291
0.008722
0.014760
0.008551
0.020655
0.014314
0.011375
0.013729
0.013508
0.026156
0.029483
0.009607
0.031128
0.019117
0.027892
0.022077
0.022311
0.016401
0.017021
0.020413
0.015741
0.018869
0.014033
0.013913
0.015223
0.014037
0.024807
0.016553
0.015267
0.014954
0.024826
0.019983
0.013188
0.021227
0.019864
0.016353
0.016903
0.014877
0.021702
0.013605
0.023123
0.015451
0.016484
0.013921
0.017366
0.019826
0.018902
0.023117
0.024272
0.021577
0.023365
0.019572
0.013416
0.024426
0.016018
0.022176
0.013383
0.023203
0.017947
0.025058
0.017610
0.023141
0.018947
0.016506
0.018059
0.019887
0.021597
0.024103
0.014465
0.012507
0.020059
0.025181
0.018145
0.015939
0.015790
0.014059
0.013414
0.030011
0.019384
0.010282
0.029978
0.021242
0.027528
0.018053
0.009516
0.026808
0.017209
0.010428
0.013788
0.018876
0.013962
0.013702
0.020694
0.011319
0.010325
0.028617
0.033609
0.035280
0.029723
0.014436
0.022827
0.009226
0.025084
0.031717
0.023066
0.014434
0.023215
0.013775
0.018322
0.016262
0.020911
0.023009
0.022663
0.029885
0.012454
0.016179
0.012068
0.012252
0.013102
0.011925
0.024400
0.016855
0.026733
0.017838
0.032892
0.035214
0.032965
0.026000
0.024541
0.028396
0.014141
0.022453
0.024447
0.019372
0.010479
0.033527
0.011048
0.008654
0.011141
0.018913
0.014293
0.010730
0.012968
0.018568
0.012739
0.016647
0.013575
0.016369
0.010481
0.014086
0.010119
0.012704
0.012086
0.013433
0.008480
0.011091
0.021295
0.017170
0.018075
0.022828
0.013952
0.013539
0.010674
0.016519
0.013862
0.020219
0.015332
0.013838
0.012093
0.009231
0.010169
0.012148
0.014295
0.016577
0.014083
0.019004
0.013644
0.011218
0.011389
0.010049
0.011937
0.009296
0.011272
0.011353
0.016013
0.011885
0.016698
0.020752
0.022904
0.015266
0.020899
0.015451
0.018766
0.013803
0.015869
0.016610
0.012671
0.010172
0.021254
0.010036
0.010319
0.017031
0.026624
0.029366
0.018623
0.009473
0.017991
0.009749
0.014307
0.011240
0.016590
0.032806
0.034334
0.021182
0.011047
0.029111
0.020208
0.035187
0.012540
0.016503
0.013697
0.011231
0.008925
0.022759
0.032663
0.022432
0.014604
0.010655
0.009938
0.017133
0.029006
0.024458
0.028323
0.031351
0.023215
0.021974
0.026953
0.012746
0.022706
0.012586
0.033273
0.032855
0.024915
0.035288
0.016098
0.028298
0.013602
0.023587
0.009720
0.012485
0.012357
0.016675
0.010476
0.017842
0.022757
0.011132
0.014105
0.028362
0.017663
0.028626
0.011846
0.024798
0.022195
0.018874
0.014219
0.010664
0.012847
0.018538
0.012687
0.016655
0.010430
0.013539
0.016445
0.010540
0.010322
0.014102
0.009778
0.012088
0.013531
0.008415
0.011179
0.021287
0.017048
0.017932
0.022800
0.013928
0.013538
0.009278
0.016504
0.013739
0.020276
0.015325
0.013850
0.012480
0.011799
0.014584
0.016642
0.013902
0.018998
0.013477
0.011260
0.011657
0.009846
0.013282
0.009204
0.011456
0.011204
0.016022
0.011778
0.016758
0.020670
0.022824
0.015099
0.020874
0.015349
0.018777
0.013856
0.015862
0.012437
0.016695
0.011683
0.021172
0.009274
0.010527
0.010371
0.014904
0.022717
0.025890
0.017154
0.008885
0.016930
0.009539
0.013601
0.010725
0.031122
0.012535
0.032218
0.016681
0.028639
0.010143
0.033584
0.015833
0.010250
0.015412
0.011783
0.008556
0.022315
0.010991
0.030718
0.019306
0.013350
0.009498
0.016739
0.011332
0.024991
0.020387
0.027499
0.028222
0.018611
0.017918
0.023720
0.009983
0.021267
0.032860
0.010847
0.029859
0.020309
0.034523
0.012546
0.026940
0.010287
0.022427
0.009146
0.011409
0.008856
0.014811
0.008620
0.020805
0.014247
0.011480
0.013803
0.026516
0.013544
0.026217
0.009681
0.022783
0.021268
0.019944
0.023526
0.022602
0.017073
0.014659
0.015730
0.013703
0.019522
0.013849
0.014513
0.016079
0.019646
0.024366
0.024898
0.016617
0.020364
0.015899
0.024566
0.016896
0.018299
0.014743
0.013378
0.015458
0.015110
0.022523
0.023011
0.014943
0.013433
0.013993
0.013558
0.023729
0.022729
0.025118
0.024097
0.022548
0.018789
0.019672
0.015788
0.022838
0.020060
0.024559
0.015948
0.024877
0.019427
0.021423
0.018157
0.017160
0.016249
0.013568
0.017018
0.014506
0.021572
0.021924
0.015357
0.012568
0.023086
0.021129
0.019960
0.013345
0.016263
0.019930
0.015107
0.017576
0.018013
0.028077
0.019799
0.021621
0.024722
0.024182
0.008965
0.004653
0.017945
0.016767
0.020353
0.018034
0.029605
0.017182
0.018501
0.019878
0.030120
0.022926
0.004152
0.011609
0.014381
0.013824
0.017398
0.027938
0.023741
0.026597
0.023103
0.024730
0.020188
0.029940
0.028831
0.026018
0.024832
0.016127
0.030549
0.029975
0.011611
0.023685
0.010550
0.022943
0.034391
0.018988
0.024410
0.020034
0.032861
0.013913
0.014042
0.029681
0.015126
0.017765
0.027482
0.033108
0.022938
0.022286
0.020305
0.022027
0.016086
0.022441
0.026286
0.022454
0.022657
0.019581
0.021086
0.021672
0.022658
0.028569
0.033833
0.017455
0.023783
0.028137
0.028626
0.028682
0.031950
0.019374
0.023275
0.026343
0.031746
0.028492
0.027172
0.024991
0.029020
0.027393
0.033647
0.030029
0.024290
0.012698
0.013977
0.011024
0.018062
0.012934
0.012571
0.021891
0.024682
0.020858
0.021538
0.023026
0.023685
0.011323
0.008681
0.022465
0.006767
