# vtk DataFile Version 2.0
Unstructured Grid Example
ASCII
DATASET UNSTRUCTURED_GRID
POINTS 1108 float
0.998302 -0.000650 0.016027 
-0.998302 0.000631 -0.015876 
-0.000832 0.990701 0.002448 
0.000719 -0.990491 -0.002544 
0.015772 0.002465 1.011108 
-0.015704 -0.002555 -1.011019 
1.198379 -0.000452 0.010621 
-1.198405 0.000288 -0.010629 
-0.000590 1.190994 0.001661 
0.000543 -1.191125 -0.001802 
0.010534 0.001663 1.210454 
-0.010589 -0.001725 -1.210511 
0.978871 0.193174 0.016119 
0.921611 0.379228 0.015693 
0.828739 0.550478 0.014543 
0.704103 0.700562 0.013071 
0.552674 0.823542 0.010615 
0.380366 0.914928 0.008208 
0.193521 0.971339 0.005483 
-0.195143 0.972193 -0.000415 
-0.381880 0.916175 -0.003570 
-0.554426 0.824977 -0.006793 
-0.705606 0.702122 -0.009595 
-0.829627 0.552079 -0.011691 
-0.922403 0.380732 -0.013821 
-0.979213 0.194416 -0.015079 
-0.978862 -0.193304 -0.015985 
-0.921819 -0.379353 -0.015562 
-0.829146 -0.550661 -0.014438 
-0.704485 -0.700670 -0.012957 
-0.552874 -0.823535 -0.010754 
-0.380463 -0.914911 -0.008428 
-0.193532 -0.971398 -0.005446 
0.194917 -0.971935 0.000425 
0.381840 -0.915852 0.003527 
0.554356 -0.824857 0.006962 
0.705635 -0.702098 0.009555 
0.829651 -0.552038 0.011706 
0.922464 -0.380764 0.013855 
0.979204 -0.194466 0.015120 
0.015549 -0.192022 0.990507 
0.014853 -0.378741 0.931545 
0.013405 -0.550251 0.836596 
0.011602 -0.700284 0.709722 
0.009435 -0.822972 0.556445 
0.006576 -0.914402 0.381940 
0.003663 -0.970830 0.193291 
-0.002376 -0.972690 -0.198234 
-0.005361 -0.917869 -0.387115 
-0.008232 -0.827762 -0.561784 
-0.010618 -0.705593 -0.715209 
-0.012586 -0.555758 -0.841394 
-0.014263 -0.383974 -0.935157 
-0.015202 -0.197115 -0.992403 
-0.015529 0.192063 -0.990472 
-0.014686 0.378758 -0.931255 
-0.013522 0.550215 -0.836558 
-0.011671 0.700316 -0.709854 
-0.009407 0.823048 -0.556530 
-0.006686 0.914421 -0.382037 
-0.003802 0.970842 -0.193342 
0.002244 0.972682 0.198187 
0.005422 0.917780 0.387327 
0.008237 0.827807 0.561732 
0.010705 0.705526 0.715135 
0.012700 0.555714 0.841487 
0.014312 0.383887 0.934976 
0.015305 0.197023 0.992286 
0.985343 -0.000156 0.212498 
0.934264 0.000390 0.402501 
0.846521 0.000758 0.577459 
0.724507 0.001153 0.730492 
0.573705 0.001739 0.854730 
0.400382 0.002026 0.944794 
0.211670 0.002234 0.997294 
-0.179518 0.002456 0.985588 
-0.366596 0.002691 0.922302 
-0.539058 0.002354 0.824457 
-0.690415 0.002197 0.696783 
-0.815788 0.002061 0.542735 
-0.911517 0.001437 0.368623 
-0.973093 0.001076 0.180193 
-0.985364 0.000123 -0.212375 
-0.934134 -0.000380 -0.402356 
-0.846236 -0.000711 -0.577393 
-0.724312 -0.001146 -0.730409 
-0.573571 -0.001606 -0.854973 
-0.400391 -0.001980 -0.944827 
-0.211631 -0.002278 -0.997275 
0.179652 -0.002602 -0.985589 
0.366664 -0.002690 -0.922356 
0.539225 -0.002448 -0.824543 
0.690535 -0.002244 -0.696771 
0.815773 -0.002037 -0.542763 
0.911502 -0.001547 -0.368535 
0.973245 -0.001150 -0.180160 
1.183404 0.186474 0.010656 
1.139035 0.368668 0.010606 
1.066357 0.541677 0.010095 
0.967731 0.701014 0.009643 
0.845314 0.842742 0.008798 
0.702095 0.963955 0.007302 
0.541936 1.061194 0.006203 
0.368628 1.132415 0.004731 
0.186379 1.176127 0.003472 
-0.187517 1.176705 -0.000144 
-0.369741 1.133682 -0.002042 
-0.543212 1.062461 -0.003231 
-0.703263 0.965455 -0.004599 
-0.846663 0.844189 -0.006064 
-0.969172 0.702002 -0.007780 
-1.067344 0.542738 -0.008613 
-1.139851 0.369499 -0.009417 
-1.183817 0.187204 -0.010110 
-1.183468 -0.186467 -0.010705 
-1.139238 -0.368747 -0.010582 
-1.066681 -0.541783 -0.010117 
-0.968048 -0.701211 -0.009569 
-0.845327 -0.842884 -0.008530 
-0.702109 -0.964089 -0.007267 
-0.542021 -1.061179 -0.006131 
-0.368679 -1.132461 -0.004758 
-0.186390 -1.176082 -0.003486 
0.187385 -1.176642 0.000110 
0.369627 -1.133418 0.001986 
0.543036 -1.062339 0.003281 
0.703157 -0.965356 0.004699 
0.846587 -0.844255 0.006135 
0.969145 -0.702045 0.007931 
1.067345 -0.542776 0.008662 
1.139866 -0.369545 0.009426 
1.183805 -0.187291 0.010157 
-0.001377 -1.177346 -0.189668 
-0.002801 -1.135099 -0.373032 
-0.004419 -1.065188 -0.547977 
-0.005595 -0.968942 -0.710100 
-0.007144 -0.848484 -0.854803 
-0.008530 -0.706802 -0.978993 
-0.009134 -0.546789 -1.079105 
-0.009771 -0.372945 -1.152241 
-0.010318 -0.189609 -1.196323 
-0.010421 0.186105 -1.194658 
-0.010143 0.369153 -1.148762 
-0.009631 0.542267 -1.074662 
-0.008883 0.701574 -0.974011 
-0.007819 0.843313 -0.850075 
-0.006315 0.964206 -0.704978 
-0.005155 1.060982 -0.543623 
-0.003997 1.131839 -0.369445 
-0.002129 1.175720 -0.186016 
0.001452 1.177484 0.189746 
0.002776 1.134981 0.373154 
0.004091 1.065416 0.547600 
0.005567 0.969000 0.710101 
0.007145 0.848418 0.854834 
0.008683 0.706787 0.978789 
0.009210 0.546756 1.079052 
0.009851 0.372930 1.152098 
0.010363 0.189661 1.196279 
0.010528 -0.186196 1.194637 
0.010145 -0.369065 1.148947 
0.009619 -0.542374 1.074694 
0.008917 -0.701641 0.973843 
0.007772 -0.843338 0.849949 
0.006278 -0.964154 0.704877 
0.005133 -1.060914 0.543558 
0.003968 -1.131821 0.369356 
0.002086 -1.175680 0.185843 
-1.178231 0.000694 0.177583 
-1.129979 0.000764 0.359941 
-1.054912 0.001164 0.533088 
-0.955527 0.001151 0.693265 
-0.833777 0.001636 0.837683 
-0.691322 0.001640 0.962199 
-0.532468 0.001672 1.063582 
-0.359971 0.001620 1.140654 
-0.177632 0.001730 1.190098 
0.199463 0.001492 1.200898 
0.384338 0.001475 1.160929 
0.560563 0.001292 1.091491 
0.722746 0.001036 0.993503 
0.865853 0.000861 0.869701 
0.987180 0.000711 0.724558 
1.083141 0.000301 0.561427 
1.150706 0.000013 0.384700 
1.189142 -0.000192 0.199259 
1.178278 -0.000746 -0.177417 
1.129890 -0.000977 -0.359994 
1.054829 -0.001183 -0.533086 
0.955634 -0.001244 -0.693319 
0.833745 -0.001596 -0.837758 
0.691291 -0.001540 -0.962248 
0.532506 -0.001648 -1.063673 
0.360118 -0.001680 -1.140620 
0.177629 -0.001688 -1.190187 
-0.199369 -0.001463 -1.200801 
-0.384181 -0.001442 -1.160931 
-0.560571 -0.001357 -1.091633 
-0.722678 -0.001287 -0.993214 
-0.865761 -0.000851 -0.869578 
-0.986998 -0.000676 -0.724414 
-1.082898 -0.000258 -0.561288 
-1.150600 0.000010 -0.384646 
-1.189145 0.000168 -0.199226 
0.807163 -0.393606 -0.403704 
0.409023 -0.787664 -0.440608 
0.379855 -0.376732 -0.836770 
0.882551 -0.296566 -0.324231 
0.290875 -0.887327 -0.333961 
0.667489 -0.334052 -0.640732 
0.546623 -0.625695 -0.534701 
0.865658 -0.477384 -0.096529 
0.169085 -0.617778 -0.768447 
0.596918 -0.171814 -0.763851 
0.860201 -0.156114 -0.447689 
0.199107 -0.846685 -0.482344 
0.944623 -0.138197 -0.251926 
0.790153 -0.290877 -0.506290 
0.674685 -0.638464 -0.335356 
0.459815 -0.854864 -0.197514 
0.624018 -0.750992 -0.167316 
0.513478 -0.474651 -0.698754 
0.781719 -0.142380 -0.574867 
0.549604 -0.747098 -0.343203 
0.980916 -0.122728 -0.098689 
0.766803 -0.612114 -0.141938 
0.148732 -0.940805 -0.279127 
0.932335 -0.304828 -0.145603 
0.723897 -0.465936 -0.477441 
0.266255 -0.942872 -0.151377 
0.534738 -0.299858 -0.773576 
0.323604 -0.701071 -0.625492 
0.825213 -0.465060 -0.278951 
0.482786 -0.182037 -0.843288 
0.137944 -0.754518 -0.639467 
0.181981 -0.480089 -0.859868 
0.162757 -0.318837 -0.937310 
0.339090 -0.554079 -0.752740 
0.625231 -0.477832 -0.593281 
0.123117 -0.975611 -0.126502 
0.436540 -0.598168 -0.658248 
0.314302 -0.216761 -0.920108 
0.189902 -0.134607 -0.974504 
0.487912 0.574201 -0.630128 
0.495111 0.774226 -0.350509 
0.794532 0.366281 -0.441928 
0.385736 0.461504 -0.781686 
0.343439 0.875313 -0.295471 
0.275584 0.308072 -0.903209 
0.154772 0.160192 -0.976400 
0.745537 0.211552 -0.598470 
0.659119 0.529359 -0.496407 
0.496970 0.837320 -0.161324 
0.585329 0.171847 -0.769975 
0.175139 0.867629 -0.438442 
0.154813 0.469031 -0.864867 
0.544311 0.673933 -0.461522 
0.146489 0.943786 -0.252724 
0.373917 0.135566 -0.907522 
0.108733 0.318369 -0.943007 
0.616125 0.693863 -0.325036 
0.102587 0.618343 -0.772620 
0.156897 0.746463 -0.631459 
0.288301 0.616508 -0.716092 
0.849434 0.480115 -0.156955 
0.593446 0.386616 -0.678141 
0.365508 0.756356 -0.512797 
0.749754 0.546175 -0.323886 
0.122736 0.975595 -0.107334 
0.285040 0.936598 -0.133857 
0.701463 0.682481 -0.135975 
0.936751 0.144062 -0.270911 
0.457410 0.299689 -0.819559 
0.843856 0.404110 -0.302806 
0.862456 0.166744 -0.435780 
0.932042 0.288809 -0.162213 
0.884281 0.279093 -0.326749 
0.976914 0.126381 -0.116525 
0.710256 0.377695 -0.558583 
0.476111 0.462405 0.779021 
0.458610 0.802015 0.395553 
0.840649 0.411828 0.390955 
0.349146 0.316683 0.908818 
0.307244 0.899904 0.305092 
0.911642 0.336839 0.273364 
0.967986 0.167980 0.228123 
0.562012 0.632742 0.560770 
0.122322 0.482305 0.883387 
0.768751 0.168179 0.659596 
0.460359 0.162772 0.904257 
0.430350 0.878099 0.192777 
0.867552 0.470273 0.184279 
0.278588 0.144139 0.973405 
0.254550 0.948708 0.149119 
0.940301 0.320367 0.140271 
0.631099 0.161937 0.797243 
0.532785 0.294533 0.827781 
0.330454 0.629966 0.724849 
0.775688 0.616749 0.128757 
0.670332 0.719069 0.183508 
0.602175 0.496546 0.659033 
0.203211 0.752417 0.640045 
0.765253 0.576149 0.314390 
0.635848 0.683421 0.381970 
0.399572 0.719248 0.588920 
0.554396 0.798721 0.234437 
0.110884 0.977715 0.127864 
0.128399 0.125905 1.000683 
0.478158 0.596194 0.672833 
0.163171 0.613633 0.788275 
0.714318 0.507667 0.517367 
0.658136 0.352443 0.703435 
0.173260 0.311705 0.953456 
0.168510 0.942146 0.274826 
0.797757 0.321213 0.552663 
0.854407 0.141752 0.545412 
0.222874 0.861102 0.462185 
0.897068 0.233791 0.419131 
0.271125 0.479044 0.857361 
0.517483 -0.783230 0.350839 
0.345274 -0.370806 0.883465 
0.332881 -0.867096 0.364600 
0.163946 -0.462159 0.882745 
0.531055 -0.157273 0.864971 
0.428961 -0.877824 0.193470 
0.619014 -0.545441 0.592486 
0.283313 -0.172673 0.964995 
0.230294 -0.948456 0.181127 
0.916170 -0.372581 0.177758 
0.781314 -0.400270 0.515568 
0.739805 -0.656274 0.152468 
0.880882 -0.188379 0.478032 
0.960739 -0.181193 0.251768 
0.523287 -0.321351 0.818872 
0.575254 -0.673796 0.482363 
0.613021 -0.769669 0.171881 
0.713867 -0.634585 0.316778 
[...]
POINT_DATA 1108
SCALARS u float 1
LOOKUP_TABLE default
0.016130
0.015980
0.009651
0.009869
0.019448
0.019354
0.010754
0.010752
0.009177
0.009072
0.014934
0.015020
0.016345
0.016228
0.015649
0.014923
0.013561
0.012364
0.011034
0.008602
0.008529
0.009466
0.010916
0.012339
0.014036
0.015175
0.016199
0.016047
0.015425
0.014703
0.013633
0.012506
0.010964
0.008863
0.008809
0.009678
0.010888
0.012362
0.014059
0.015215
0.018594
0.017173
0.015306
0.013711
0.012728
0.011560
0.010759
0.009003
0.009193
0.010960
0.013442
0.016029
0.018229
0.019240
0.018551
0.016896
0.015408
0.013780
0.012662
0.011601
0.010788
0.008960
0.009390
0.010920
0.013473
0.016176
0.018150
0.019242
0.017995
0.022377
0.026575
0.029172
0.029545
0.027473
0.023503
0.016480
0.016387
0.018094
0.019750
0.020369
0.018777
0.016801
0.017882
0.022188
0.026359
0.028989
0.029648
0.027501
0.023466
0.016377
0.016315
0.017920
0.019659
0.020361
0.018862
0.016766
0.010882
0.011050
0.010942
0.011012
0.011010
0.010535
0.010528
0.010275
0.009831
0.008525
0.007929
0.007645
0.007366
0.007686
0.008626
0.009048
0.009614
0.010220
0.010920
0.010973
0.010852
0.010785
0.010718
0.010420
0.010474
0.010236
0.009876
0.008591
0.008185
0.007811
0.007531
0.007724
0.008751
0.009085
0.009614
0.010265
0.008232
0.007127
0.006771
0.007581
0.009509
0.011903
0.013615
0.014846
0.015270
0.014148
0.012721
0.011352
0.010163
0.009525
0.009152
0.009777
0.010333
0.009890
0.008133
0.007258
0.006247
0.007547
0.009530
0.011873
0.013624
0.014791
0.015275
0.014203
0.012844
0.011334
0.010117
0.009453
0.009169
0.009830
0.010350
0.009950
0.012337
0.015697
0.018510
0.019521
0.018382
0.016540
0.013647
0.010987
0.011337
0.019640
0.023905
0.027332
0.028609
0.027371
0.025247
0.021704
0.016785
0.012186
0.012450
0.015736
0.018577
0.019410
0.018360
0.016531
0.013573
0.010853
0.011372
0.019503
0.023816
0.027456
0.028349
0.027217
0.025017
0.021441
0.016680
0.012155
0.016443
0.010402
0.014393
0.016491
0.009123
0.017178
0.013220
0.013259
0.012740
0.017703
0.018687
0.009698
0.016930
0.017952
0.013351
0.009744
0.011168
0.014430
0.019481
0.011521
0.015672
0.012437
0.008815
0.014934
0.016094
0.008645
0.016247
0.011227
0.014814
0.016287
0.011198
0.014167
0.015540
0.012655
0.015541
0.008859
0.012656
0.015201
0.016021
0.018770
0.016971
0.020428
0.017520
0.014960
0.016386
0.016553
0.020854
0.019824
0.015027
0.019377
0.014033
0.015535
0.018729
0.012650
0.016909
0.016337
0.017866
0.014747
0.014573
0.016390
0.017266
0.020149
0.016806
0.019057
0.011332
0.012863
0.016288
0.018257
0.018364
0.018972
0.020325
0.017280
0.019255
0.016641
0.020673
0.025265
0.014228
0.020816
0.025672
0.011040
0.018883
0.018677
0.019985
0.019183
0.027865
0.028350
0.011907
0.016800
0.025269
0.010564
0.017006
0.029738
0.028174
0.019794
0.015242
0.014551
0.024080
0.015239
0.017457
0.016931
0.017437
0.013310
0.009466
0.021875
0.021703
0.017678
0.022004
0.027056
0.022151
0.009722
0.025069
0.025919
0.011867
0.022518
0.022202
0.011720
0.022533
0.010293
0.018132
0.027929
0.009295
0.019987
0.023988
0.009219
0.015422
0.021843
0.012108
0.023340
0.018269
0.025459
0.015289
0.010737
0.014530
0.021219
0.020323
0.012679
0.010753
0.013140
0.013767
0.017118
0.026997
0.011262
0.020919
0.018248
0.016848
0.024613
0.015628
0.015331
0.018672
0.028245
0.026019
0.019211
0.009482
0.018899
0.017083
0.020190
0.017752
0.015137
0.016364
0.016476
0.020743
0.019939
0.015188
0.019630
0.014039
0.015632
0.018442
0.012530
0.016979
0.016332
0.017851
0.014667
0.014557
0.016412
0.016938
0.020246
0.016842
0.018935
0.011327
0.012940
0.016148
0.018104
0.018361
0.019007
0.020236
0.017050
0.019124
0.016586
0.020805
0.024798
0.014068
0.020445
0.025700
0.011141
0.018744
0.018577
0.020041
0.019101
0.027838
0.028317
0.011969
0.016646
0.025170
0.010509
0.016858
0.029424
0.028112
0.019513
0.015009
0.014604
0.023973
0.014849
0.017370
0.016903
0.017369
0.013373
0.009568
0.021891
0.021226
0.017643
0.021866
0.026815
0.022222
0.009895
0.024838
0.025649
0.011941
0.022487
0.022192
0.011627
0.022480
0.010258
0.018160
0.028092
0.009181
0.019922
0.023984
0.009094
0.015397
0.021702
0.012080
0.023219
0.018158
0.025342
0.015334
0.010552
0.014442
0.021084
0.020200
0.012605
0.010778
0.013160
0.013782
0.017081
0.026914
0.011279
0.020870
0.018108
0.016641
0.024499
0.015478
0.015298
0.018560
0.028184
0.026075
0.019034
0.009362
0.016449
0.010399
0.014499
0.016566
0.009167
0.017183
0.013207
0.013282
0.012760
0.017789
0.018722
0.009398
0.016825
0.017945
0.013306
0.009603
0.010866
0.014457
0.019503
0.011441
0.015606
0.012385
0.008818
0.014965
0.016086
0.008512
0.016333
0.011375
0.014788
0.016403
0.011265
0.014249
0.015603
0.012774
0.015527
0.008750
0.012775
0.015264
0.016061
0.011960
0.018195
0.019191
0.013654
0.007075
0.013490
0.007548
0.020367
0.010853
0.008465
0.018385
0.024786
0.010031
0.013391
0.022802
0.008128
0.027127
0.012696
0.008138
0.012254
0.009399
0.006769
0.017715
0.008789
0.016003
0.015481
0.010673
0.007510
0.013343
0.008997
0.020274
0.021876
0.014756
0.014348
0.018810
0.008017
0.016876
0.026193
0.008715
0.024931
0.016255
0.027617
0.010106
0.021428
0.008257
0.017791
0.007348
0.009043
0.006985
0.011821
0.006848
0.016542
0.011464
0.009110
0.010995
0.010818
0.020948
0.023613
0.007694
0.024930
0.015311
0.022339
0.017682
0.017869
0.013136
0.013632
0.016349
0.012607
0.015112
0.011239
0.011143
0.012192
0.011242
0.019868
0.013257
0.012228
0.011977
0.019883
0.016004
0.010562
0.017001
0.015909
0.013097
0.013538
0.011915
0.017381
0.010896
0.018519
0.012375
0.013202
0.011149
0.013908
0.015879
0.015139
0.018515
0.019439
0.017281
0.018713
0.015675
0.010745
0.019562
0.012829
0.017761
0.010718
0.018583
0.014373
0.020069
0.014104
0.018533
0.015175
0.013220
0.014463
0.015927
0.017297
0.019304
0.011585
0.010017
0.016065
0.020167
0.014533
0.012765
0.012646
0.011260
0.010743
0.024036
0.015525
0.008235
0.024009
0.017013
0.022047
0.014458
0.007622
0.021470
0.013783
0.008352
0.011043
0.015118
0.011182
0.010974
0.016574
0.009065
0.008269
0.022920
0.026917
0.028255
0.023805
0.011561
0.018282
0.007389
0.020090
0.025402
0.018474
0.011560
0.018593
0.011032
0.014674
0.013024
0.016747
0.018428
0.018151
0.023935
0.009974
0.012958
0.009665
0.009813
0.010493
0.009551
0.019542
0.013499
0.021410
0.014286
0.026343
0.028203
0.026402
0.020823
0.019655
0.022743
0.011325
0.017983
0.019580
0.015515
0.008393
0.026852
0.008848
0.006931
0.008922
0.015147
0.011447
0.008593
0.010386
0.014871
0.010203
0.013333
0.010873
0.013110
0.008395
0.011282
0.008104
0.010174
0.009679
0.010759
0.006792
0.008883
0.017055
0.013751
0.014476
0.018283
0.011174
0.010844
0.008549
0.013230
0.011102
0.016193
0.012280
0.011083
0.009685
0.007393
0.008145
0.009730
0.011449
0.013276
0.011279
0.015220
0.010927
0.008984
0.009121
0.008048
0.009560
0.007445
0.009028
0.009093
0.012825
0.009519
0.013374
0.016620
0.018343
0.012227
0.016738
0.012375
0.015030
0.011055
0.012710
0.013303
0.010148
0.008146
0.017022
0.008038
0.008264
0.013640
0.021323
0.023519
0.014915
0.007587
0.014409
0.007808
0.011458
0.009002
0.013287
0.026275
0.027498
0.016964
0.008847
0.023315
0.016184
0.028181
0.010043
0.013217
0.010970
0.008995
0.007148
0.018227
0.026160
0.017966
0.011696
0.008533
0.007960
0.013722
0.023231
0.019588
0.022683
0.025109
0.018593
0.017599
0.021587
0.010208
0.018185
0.010080
0.026648
0.026313
0.019954
0.028262
0.012893
0.022664
0.010894
0.018891
0.007784
0.009999
0.009897
0.013355
0.008390
0.014290
0.018226
0.008916
0.011296
0.022715
0.014146
0.022927
0.009488
0.019861
0.017776
0.015116
0.011388
0.008541
0.010289
0.014847
0.010161
0.013339
0.008353
0.010843
0.013171
0.008441
0.008267
0.011295
0.007831
0.009681
0.010837
0.006739
0.008953
0.017048
0.013654
0.014362
0.018261
0.011155
0.010843
0.007431
0.013218
0.011004
0.016239
0.012274
0.011092
0.009995
0.009450
0.011681
0.013329
0.011134
0.015215
0.010794
0.009018
0.009336
0.007886
0.010638
0.007371
0.009175
0.008974
0.012832
0.009433
0.013422
0.016555
0.018280
0.012093
0.016718
0.012293
0.015038
0.011098
0.012704
0.009961
0.013371
0.009357
0.016957
0.007428
0.008431
0.008306
0.011936
0.018194
0.020735
0.013738
0.007116
0.013559
0.007639
0.010893
0.008589
0.024925
0.010039
0.025804
0.013360
0.022937
0.008123
0.026898
0.012680
0.008210
0.012344
0.009437
0.006852
0.017872
0.008803
0.024602
0.015462
0.010692
0.007607
0.013406
0.009076
0.020016
0.016328
0.022024
0.022603
0.014906
0.014351
0.018997
0.007995
0.017033
0.026317
0.008687
0.023914
0.016266
0.027649
0.010048
0.021576
0.008239
0.017962
0.007325
0.009138
0.007092
0.011862
0.006904
0.016663
0.011411
0.009194
0.011055
0.021236
0.010847
0.020997
0.007754
0.018246
0.017034
0.015973
0.018842
0.018102
0.013673
0.011741
0.012598
0.010975
0.015635
0.011092
0.011624
0.012878
0.015734
0.019515
0.019940
0.013309
0.016310
0.012733
0.019675
0.013532
0.014656
0.011807
0.010714
0.012380
0.012102
0.018038
0.018429
0.011968
0.010759
0.011207
0.010858
0.019004
0.018204
0.020117
0.019299
0.018058
0.015048
0.015755
0.012644
0.018291
0.016066
0.019670
0.012773
0.019924
0.015559
0.017157
0.014542
0.013744
0.013014
0.010867
0.013629
0.011618
0.017277
0.017559
0.012299
0.010066
0.018490
0.016922
0.015986
0.010688
0.013025
0.015962
0.012099
0.014077
0.014426
0.022486
0.015857
0.017316
0.019800
0.019367
0.007180
0.003727
0.014372
0.013429
0.016300
0.014444
0.023711
0.013761
0.014818
0.015920
0.024123
0.018361
0.003325
0.009298
0.011518
0.011072
0.013934
0.022376
0.019014
0.021301
0.018503
0.019806
0.016168
0.023979
0.023090
0.020838
0.019888
0.012916
0.024466
0.024007
0.009299
0.018969
0.008449
0.018375
0.027544
0.015208
0.019550
0.016045
0.026318
0.011143
0.011246
0.023771
0.012114
0.014228
0.022010
0.026516
0.018371
0.017849
0.016263
0.017641
0.012884
0.017973
0.021052
0.017983
0.018146
0.015683
0.016888
0.017357
0.018147
0.022881
0.027096
0.013980
0.019048
0.022535
0.022927
0.022971
0.025589
0.015516
0.018640
0.021098
0.025426
0.022819
0.021762
0.020016
0.023242
0.021939
0.026948
0.024050
0.019454
0.010170
0.011194
0.008829
0.014466
0.010359
0.010068
0.017533
0.019768
0.016705
0.017249
0.018441
0.018969
0.009069
0.006952
0.017992
0.005420
