# vtk DataFile Version 2.0
Unstructured Grid Example
ASCII
DATASET UNSTRUCTURED_GRID
POINTS 1108 float
1.004364 0.005656 -0.000928 
-1.004296 -0.005576 0.000873 
0.005633 0.994151 0.001541 
-0.005630 -0.994112 -0.001556 
-0.000922 0.001500 1.001719 
0.000942 -0.001560 -1.001512 
1.204097 0.003737 -0.000616 
-1.204093 -0.003775 0.000578 
0.003731 1.194471 0.000962 
-0.003809 -1.194421 -0.001015 
-0.000596 0.001000 1.201613 
0.000587 -0.000968 -1.201504 
0.987038 0.200335 -0.000573 
0.931445 0.387549 -0.000278 
0.839566 0.559753 0.000014 
0.714967 0.710224 0.000409 
0.562766 0.832775 0.000764 
0.389173 0.922875 0.001059 
0.200973 0.977352 0.001305 
-0.189545 0.973126 0.001669 
-0.377152 0.914901 0.001767 
-0.550530 0.822044 0.001762 
-0.703010 0.698181 0.001693 
-0.828842 0.547540 0.001590 
-0.923434 0.375656 0.001410 
-0.982751 0.188925 0.001169 
-0.986944 -0.200289 0.000541 
-0.931384 -0.387518 0.000303 
-0.839409 -0.559702 -0.000048 
-0.714824 -0.710239 -0.000432 
-0.562727 -0.832855 -0.000755 
-0.389197 -0.922983 -0.001044 
-0.201024 -0.977334 -0.001340 
0.189496 -0.973093 -0.001710 
0.377115 -0.914935 -0.001793 
0.550492 -0.822029 -0.001804 
0.702926 -0.698177 -0.001723 
0.828839 -0.547532 -0.001608 
0.923371 -0.375592 -0.001451 
0.982726 -0.188851 -0.001223 
-0.002045 -0.192879 0.981850 
-0.003030 -0.379660 0.924054 
-0.003938 -0.551545 0.830728 
-0.004651 -0.702147 0.705664 
-0.005205 -0.825633 0.553762 
-0.005540 -0.917573 0.380746 
-0.005770 -0.974586 0.193364 
-0.005336 -0.975738 -0.196518 
-0.004847 -0.919945 -0.384130 
-0.004130 -0.828783 -0.557145 
-0.003266 -0.705476 -0.708921 
-0.002346 -0.554906 -0.833545 
-0.001262 -0.382867 -0.926032 
-0.000126 -0.196043 -0.982766 
0.001976 0.192954 -0.981716 
0.002994 0.379685 -0.923876 
0.003912 0.551590 -0.830742 
0.004599 0.702204 -0.705719 
0.005144 0.825682 -0.553793 
0.005490 0.917621 -0.380778 
0.005717 0.974589 -0.193383 
0.005300 0.975730 0.196452 
0.004819 0.919916 0.384031 
0.004166 0.828647 0.557144 
0.003288 0.705411 0.708904 
0.002424 0.554878 0.833523 
0.001322 0.382802 0.926118 
0.000156 0.195949 0.982876 
0.984634 0.005796 0.194565 
0.927060 0.005782 0.382577 
0.833986 0.005457 0.555826 
0.708868 0.005026 0.707605 
0.556629 0.004420 0.832216 
0.383102 0.003498 0.924922 
0.194860 0.002460 0.982151 
-0.196644 0.000307 0.982875 
-0.385081 -0.000702 0.926288 
-0.558588 -0.001937 0.833978 
-0.710666 -0.002847 0.709554 
-0.835548 -0.003788 0.557803 
-0.928316 -0.004545 0.384504 
-0.985301 -0.005142 0.196413 
-0.984619 -0.005742 -0.194623 
-0.927080 -0.005772 -0.382636 
-0.834024 -0.005409 -0.555882 
-0.708909 -0.005000 -0.707631 
-0.556724 -0.004332 -0.832157 
-0.383071 -0.003386 -0.924799 
-0.194778 -0.002463 -0.981946 
0.196727 -0.000438 -0.982788 
0.384993 0.000713 -0.926196 
0.558575 0.001890 -0.833921 
0.710734 0.002869 -0.709570 
0.835645 0.003805 -0.557827 
0.928344 0.004631 -0.384540 
0.985301 0.005252 -0.196501 
1.191148 0.191533 -0.000451 
1.148425 0.374911 -0.000249 
1.076901 0.549159 -0.000053 
0.978255 0.709622 0.000135 
0.855272 0.852189 0.000232 
0.711223 0.973302 0.000473 
0.549739 1.070005 0.000617 
0.374969 1.139972 0.000750 
0.191451 1.181729 0.000904 
-0.183680 1.177908 0.001050 
-0.366335 1.132704 0.001184 
-0.539704 1.060081 0.001177 
-0.700184 0.962148 0.001248 
-0.843935 0.840815 0.001122 
-0.967167 0.698603 0.001043 
-1.067046 0.539189 0.000997 
-1.141135 0.366228 0.000889 
-1.187306 0.183750 0.000778 
-1.191041 -0.191475 0.000438 
-1.148345 -0.374794 0.000190 
-1.076815 -0.549126 0.000028 
-0.978146 -0.709493 -0.000142 
-0.855333 -0.852067 -0.000249 
-0.711282 -0.973284 -0.000508 
-0.549775 -1.070073 -0.000626 
-0.374981 -1.140031 -0.000778 
-0.191454 -1.181704 -0.000872 
0.183670 -1.177917 -0.001070 
0.366281 -1.132713 -0.001179 
0.539684 -1.060073 -0.001207 
0.700158 -0.962135 -0.001258 
0.843891 -0.840767 -0.001144 
0.967108 -0.698557 -0.001059 
1.067003 -0.539135 -0.001015 
1.141077 -0.366194 -0.000905 
1.187282 -0.183755 -0.000796 
-0.003618 -1.180331 -0.188389 
-0.003374 -1.137309 -0.371393 
-0.003059 -1.066278 -0.545456 
-0.002744 -0.968893 -0.706234 
-0.002195 -0.847455 -0.849826 
-0.001610 -0.704940 -0.972460 
-0.001113 -0.544934 -1.071134 
-0.000559 -0.371275 -1.143343 
-0.000057 -0.188327 -1.187191 
0.001258 0.186271 -1.186099 
0.001746 0.369082 -1.141410 
0.002230 0.542283 -1.068552 
0.002661 0.702080 -0.969421 
0.003001 0.844359 -0.846731 
0.003462 0.965821 -0.703197 
0.003577 1.063442 -0.542669 
0.003707 1.135229 -0.369070 
0.003791 1.179220 -0.186315 
0.003622 1.180344 0.188416 
0.003380 1.137282 0.371354 
0.003047 1.066073 0.545535 
0.002807 0.968748 0.706219 
0.002236 0.847387 0.849773 
0.001514 0.704930 0.972485 
0.001125 0.544930 1.071135 
0.000586 0.371288 1.143407 
0.000060 0.188379 1.187293 
-0.001207 -0.186460 1.186272 
-0.001744 -0.369028 1.141517 
-0.002276 -0.542336 1.068561 
-0.002682 -0.702070 0.969426 
-0.002995 -0.844326 0.846684 
-0.003490 -0.965782 0.703169 
-0.003603 -1.063388 0.542643 
-0.003734 -1.135199 0.369067 
-0.003811 -1.179212 0.186301 
-1.189540 -0.003517 0.188844 
-1.145611 -0.003284 0.372379 
-1.073326 -0.002858 0.546749 
-0.974613 -0.002523 0.707519 
-0.851806 -0.001890 0.850929 
-0.708014 -0.001339 0.973468 
-0.547110 -0.000821 1.071809 
-0.372382 -0.000219 1.143501 
-0.188774 0.000355 1.187150 
0.187548 0.001584 1.186542 
0.370999 0.002172 1.142390 
0.545360 0.002613 1.070143 
0.706293 0.002897 0.971644 
0.849966 0.003361 0.849229 
0.972807 0.003700 0.705929 
1.071882 0.003753 0.545152 
1.144470 0.003857 0.371018 
1.188897 0.003857 0.187536 
1.189594 0.003512 -0.188856 
1.145680 0.003271 -0.372421 
1.073450 0.002851 -0.546778 
0.974694 0.002478 -0.707555 
0.851821 0.001895 -0.850988 
0.707968 0.001394 -0.973465 
0.547076 0.000780 -1.071699 
0.372476 0.000183 -1.143406 
0.188684 -0.000224 -1.187076 
-0.187558 -0.001531 -1.186380 
-0.370984 -0.002282 -1.142181 
-0.545309 -0.002596 -1.070086 
-0.706188 -0.003032 -0.971668 
-0.849969 -0.003332 -0.849265 
-0.972833 -0.003655 -0.705959 
-1.071917 -0.003708 -0.545181 
-1.144495 -0.003819 -0.371038 
-1.188885 -0.003834 -0.187549 
0.818898 -0.390997 -0.416357 
0.413633 -0.787180 -0.444140 
0.394133 -0.375198 -0.840021 
0.894135 -0.292801 -0.338410 
0.291945 -0.887801 -0.335929 
0.682851 -0.331855 -0.651335 
0.555665 -0.624784 -0.541210 
0.868503 -0.473484 -0.110017 
0.178519 -0.617222 -0.765529 
0.614843 -0.168660 -0.773596 
0.876478 -0.151665 -0.462446 
0.202805 -0.847254 -0.481791 
0.956971 -0.133018 -0.267620 
0.805141 -0.287961 -0.519387 
0.680869 -0.636662 -0.344953 
0.459482 -0.853991 -0.203086 
0.624960 -0.748726 -0.176355 
0.526253 -0.473454 -0.705017 
0.800015 -0.138324 -0.588596 
0.553962 -0.745961 -0.349767 
0.988988 -0.117122 -0.114847 
0.769241 -0.609055 -0.153487 
0.147783 -0.942461 -0.278886 
0.939194 -0.300282 -0.160558 
0.735657 -0.464199 -0.488353 
0.263632 -0.943404 -0.153762 
0.550783 -0.297790 -0.781316 
0.331404 -0.700550 -0.626979 
0.833333 -0.462116 -0.291462 
0.499999 -0.179389 -0.850145 
0.144527 -0.754687 -0.636823 
0.194002 -0.479164 -0.856892 
0.176865 -0.317435 -0.933559 
0.350069 -0.553131 -0.754659 
0.637789 -0.476585 -0.602014 
0.119162 -0.977617 -0.126745 
0.446614 -0.597347 -0.662565 
0.330301 -0.214783 -0.921501 
0.206043 -0.132694 -0.971850 
0.508023 0.583556 -0.639718 
0.511612 0.784878 -0.359675 
0.815535 0.376118 -0.457180 
0.405572 0.468444 -0.788338 
0.357210 0.884324 -0.301811 
0.294711 0.312427 -0.905323 
0.172582 0.162502 -0.973257 
0.767169 0.219448 -0.613123 
0.679679 0.540021 -0.509423 
0.510071 0.847535 -0.170428 
0.606363 0.178146 -0.781183 
0.189510 0.874057 -0.440637 
0.173071 0.472680 -0.863894 
0.563187 0.684982 -0.472274 
0.157859 0.950024 -0.255072 
0.393261 0.139865 -0.912276 
0.126764 0.320725 -0.939135 
0.633595 0.705132 -0.336814 
0.119941 0.621961 -0.771105 
0.173442 0.751749 -0.632493 
0.306830 0.623210 -0.720150 
0.864895 0.490452 -0.172081 
0.615121 0.395420 -0.690099 
0.382733 0.765470 -0.519535 
0.768791 0.557397 -0.338022 
0.131527 0.981202 -0.109784 
0.295744 0.944310 -0.139132 
0.715718 0.693405 -0.148717 
0.952856 0.151726 -0.287373 
0.477986 0.306195 -0.828009 
0.862648 0.414297 -0.318154 
0.882629 0.174680 -0.451836 
0.946757 0.297583 -0.178361 
0.902966 0.288167 -0.342873 
0.988726 0.133700 -0.133077 
0.731965 0.387253 -0.572751 
0.465119 0.462582 0.761076 
0.459035 0.806406 0.384690 
0.838320 0.416687 0.373437 
0.335046 0.316308 0.891422 
0.309909 0.904540 0.297649 
0.912529 0.342880 0.256071 
0.968528 0.174114 0.210140 
0.557390 0.635238 0.545816 
0.111016 0.481314 0.872334 
0.756471 0.171418 0.638015 
0.444399 0.163601 0.883931 
0.435639 0.884709 0.184213 
0.872600 0.477559 0.168479 
0.262676 0.144034 0.956443 
0.260044 0.954455 0.143508 
0.945515 0.327456 0.123578 
0.615994 0.163935 0.774898 
0.518814 0.295161 0.807470 
0.322476 0.630095 0.711502 
0.783283 0.624925 0.114814 
0.676491 0.726599 0.170833 
0.593917 0.498217 0.641246 
0.197567 0.752938 0.630405 
0.766936 0.582039 0.299224 
0.636190 0.688354 0.368143 
0.395101 0.720993 0.576525 
0.559101 0.805366 0.223648 
0.116048 0.982019 0.125005 
0.112544 0.125224 0.987842 
0.470677 0.597278 0.657267 
0.154302 0.613125 0.777622 
0.709316 0.511035 0.500214 
0.647043 0.354303 0.683235 
0.159335 0.310803 0.939930 
0.171129 0.946155 0.269919 
0.789513 0.324617 0.533174 
0.844100 0.145905 0.524617 
0.221530 0.863609 0.454678 
0.891941 0.238636 0.399968 
0.259584 0.478173 0.842987 
0.506450 -0.778632 0.339237 
0.327198 -0.367615 0.866545 
0.321740 -0.864946 0.356706 
0.146370 -0.461005 0.871425 
0.512969 -0.153752 0.843390 
0.420910 -0.875215 0.185435 
0.603291 -0.539058 0.574433 
0.265579 -0.171064 0.948208 
0.221974 -0.948590 0.177074 
0.912116 -0.366835 0.161301 
0.767311 -0.393729 0.495740 
0.734004 -0.651034 0.139126 
0.869201 -0.182514 0.457512 
0.956490 -0.175244 0.233497 
0.505081 -0.316748 0.798453 
0.561938 -0.667937 0.467575 
0.605923 -0.765158 0.160473 
0.703727 -0.628746 0.301704 
[...]
POINT_DATA 1108
SCALARS u float 1
LOOKUP_TABLE default
0.007204
0.007093
0.008265
0.008294
0.002461
0.002368
0.005579
0.005598
0.006739
0.006832
0.001989
0.001883
0.008181
0.008999
0.009113
0.008466
0.007353
0.006652
0.006935
0.009602
0.010693
0.010833
0.009966
0.008598
0.007182
0.006576
0.008078
0.008932
0.008950
0.008340
0.007329
0.006658
0.006994
0.009664
0.010688
0.010870
0.010010
0.008609
0.007256
0.006648
0.003194
0.004284
0.005679
0.006950
0.008027
0.008615
0.008643
0.007482
0.006408
0.005173
0.004077
0.003202
0.002502
0.002202
0.003055
0.004238
0.005628
0.006864
0.007944
0.008540
0.008602
0.007450
0.006384
0.005272
0.004112
0.003252
0.002602
0.002265
0.006977
0.006600
0.006015
0.005349
0.004606
0.003674
0.002823
0.002622
0.003470
0.004376
0.005174
0.005997
0.006607
0.006970
0.006920
0.006600
0.005990
0.005341
0.004536
0.003530
0.002741
0.002623
0.003348
0.004314
0.005240
0.006084
0.006695
0.007068
0.007057
0.008247
0.008848
0.008580
0.007677
0.006400
0.005052
0.004410
0.005193
0.008425
0.009740
0.010514
0.010167
0.009047
0.007737
0.006085
0.004680
0.004550
0.006935
0.008119
0.008757
0.008421
0.007674
0.006451
0.005100
0.004410
0.005206
0.008424
0.009756
0.010534
0.010193
0.009113
0.007806
0.006153
0.004718
0.004538
0.006124
0.005233
0.004289
0.003470
0.002767
0.002333
0.002230
0.002197
0.002057
0.002110
0.002468
0.003417
0.004437
0.005442
0.006448
0.007109
0.007298
0.007240
0.006118
0.005253
0.004435
0.003598
0.002802
0.002288
0.002236
0.002267
0.002170
0.002036
0.002513
0.003408
0.004455
0.005480
0.006503
0.007173
0.007338
0.007260
0.005678
0.005664
0.005382
0.005049
0.004481
0.003992
0.003582
0.002734
0.002221
0.002067
0.002451
0.002833
0.003159
0.003722
0.004241
0.004622
0.005017
0.005328
0.005718
0.005721
0.005485
0.005103
0.004526
0.003979
0.003471
0.002710
0.002098
0.001924
0.002463
0.002789
0.003260
0.003704
0.004218
0.004609
0.005005
0.005302
0.005944
0.007387
0.003077
0.006009
0.008161
0.004556
0.006134
0.007652
0.003713
0.004112
0.005760
0.006537
0.006405
0.005315
0.007790
0.009768
0.009669
0.004265
0.005247
0.008335
0.006641
0.008590
0.007943
0.006595
0.005893
0.009397
0.003690
0.005358
0.006857
0.003534
0.004826
0.002757
0.002254
0.003926
0.005040
0.008704
0.004871
0.002669
0.002366
0.006109
0.006797
0.007975
0.005048
0.006617
0.003918
0.003001
0.006709
0.007373
0.007007
0.005302
0.006994
0.004626
0.006891
0.007484
0.003792
0.003740
0.007574
0.005670
0.006359
0.005366
0.009095
0.006278
0.006185
0.008358
0.007529
0.006779
0.008386
0.007707
0.004892
0.008579
0.007440
0.008668
0.008237
0.007866
0.007279
0.005255
0.006526
0.008198
0.003911
0.006130
0.008349
0.007774
0.006714
0.003343
0.006107
0.004078
0.006623
0.008958
0.003055
0.006462
0.008659
0.005122
0.004889
0.004860
0.008799
0.008137
0.006484
0.004681
0.008379
0.007677
0.005731
0.007291
0.007092
0.002522
0.005828
0.003941
0.007507
0.006175
0.002962
0.006322
0.007191
0.006566
0.005526
0.007397
0.003938
0.011236
0.005678
0.010889
0.005589
0.004782
0.011330
0.008949
0.003831
0.010475
0.007518
0.007813
0.009957
0.006464
0.006726
0.006039
0.010271
0.011086
0.010071
0.002943
0.004084
0.009098
0.009786
0.010352
0.008674
0.009504
0.006027
0.010269
0.007866
0.009242
0.008504
0.007150
0.009143
0.007365
0.007189
0.005394
0.004668
0.007333
0.009378
0.006146
0.006797
0.007770
0.005052
0.006629
0.004021
0.003074
0.006665
0.007340
0.007005
0.005342
0.007049
0.004632
0.006803
0.007505
0.003871
0.003736
0.007490
0.005709
0.006417
0.005440
0.008967
0.006277
0.006250
0.008382
0.007577
0.006789
0.008240
0.007589
0.004926
0.008477
0.007291
0.008520
0.008056
0.007781
0.007202
0.005208
0.006537
0.008187
0.003777
0.006048
0.008354
0.007731
0.006659
0.003253
0.006136
0.003952
0.006602
0.008793
0.002983
0.006498
0.008600
0.005152
0.004877
0.004874
0.008682
0.007986
0.006405
0.004708
0.008409
0.007631
0.005714
0.007270
0.007113
0.002413
0.005821
0.003902
0.007412
0.006149
0.002877
0.006278
0.007171
0.006590
0.005503
0.007486
0.003963
0.011145
0.005595
0.010780
0.005438
0.004744
0.011259
0.008854
0.003693
0.010413
0.007450
0.007748
0.009900
0.006417
0.006670
0.005972
0.010173
0.011034
0.009970
0.002809
0.003986
0.008991
0.009681
0.010264
0.008618
0.009384
0.005973
0.010155
0.007729
0.009159
0.008431
0.007078
0.009046
0.007294
0.007093
0.005379
0.004587
0.007267
0.009333
0.005921
0.007488
0.003130
0.005961
0.008277
0.004546
0.006172
0.007607
0.003772
0.004120
0.005685
0.006673
0.006336
0.005279
0.007763
0.009759
0.009519
0.004304
0.005206
0.008241
0.006550
0.008587
0.007925
0.006516
0.005880
0.009378
0.003714
0.005450
0.006843
0.003583
0.004900
0.002829
0.002296
0.004012
0.005056
0.008632
0.004953
0.002710
0.002403
0.009311
0.007287
0.004550
0.005330
0.010420
0.004563
0.009804
0.003287
0.004422
0.009319
0.002161
0.004630
0.007875
0.006331
0.004114
0.008363
0.003152
0.004867
0.010581
0.008049
0.007484
0.010971
0.004273
0.008727
0.004044
0.008591
0.005395
0.010474
0.004525
0.008649
0.005767
0.005965
0.007387
0.008566
0.007073
0.010358
0.006370
0.003781
0.006972
0.004435
0.005582
0.003553
0.006065
0.005060
0.009305
0.004881
0.009815
0.009322
0.010029
0.006598
0.010877
0.007722
0.009715
0.008085
0.004721
0.009051
0.006254
0.003874
0.008877
0.002784
0.002730
0.002462
0.006684
0.004992
0.003279
0.004402
0.008150
0.004793
0.007806
0.002883
0.004959
0.007600
0.002304
0.006047
0.003964
0.003413
0.005104
0.006429
0.004240
0.003211
0.007963
0.005623
0.005643
0.008531
0.005730
0.006848
0.002730
0.005859
0.004484
0.008507
0.006004
0.006730
0.004270
0.003873
0.005396
0.006068
0.004670
0.007698
0.004348
0.005002
0.005518
0.003124
0.005036
0.004159
0.004967
0.004104
0.007104
0.004462
0.007614
0.006982
0.008090
0.004809
0.008579
0.005064
0.006969
0.006571
0.005995
0.004166
0.006649
0.003854
0.007095
0.003412
0.002396
0.002778
0.005970
0.005924
0.004299
0.003421
0.007211
0.002969
0.007316
0.004072
0.002395
0.006141
0.004812
0.007737
0.003623
0.003640
0.008641
0.002943
0.005760
0.003506
0.006455
0.004886
0.003678
0.005416
0.008299
0.002761
0.003810
0.006272
0.002993
0.006027
0.007324
0.002407
0.005321
0.004661
0.006683
0.006855
0.005480
0.007491
0.004403
0.008138
0.002754
0.004072
0.006529
0.003223
0.007189
0.003836
0.008126
0.003636
0.007991
0.005286
0.004179
0.003843
0.006588
0.007004
0.005390
0.006385
0.002053
0.004653
0.007636
0.005037
0.004484
0.004591
0.004541
0.004306
0.003135
0.005337
0.007619
0.002228
0.003971
0.002109
0.004114
0.002400
0.004751
0.003184
0.007400
0.004611
0.008513
0.002190
0.006373
0.004790
0.009561
0.003376
0.002641
0.003151
0.004060
0.002041
0.004653
0.009306
0.004100
0.002664
0.004441
0.002133
0.004313
0.006609
0.006410
0.008862
0.004720
0.006934
0.005360
0.004010
0.004180
0.002158
0.002475
0.007989
0.005897
0.008259
0.003502
0.009100
0.002395
0.005763
0.001878
0.004607
0.003131
0.003947
0.002507
0.003735
0.002954
0.004187
0.004874
0.002150
0.005585
0.003070
0.008162
0.003771
0.007468
0.007327
0.007085
0.005500
0.003587
0.007771
0.004337
0.007301
0.004077
0.007274
0.004467
0.003749
0.005444
0.004576
0.003557
0.003445
0.005518
0.002757
0.003655
0.006214
0.007962
0.008513
0.005900
0.004055
0.006042
0.003160
0.006391
0.008241
0.004465
0.004797
0.006159
0.004560
0.002770
0.002357
0.005345
0.004512
0.005454
0.006169
0.005044
0.007516
0.003039
0.004511
0.004266
0.003529
0.004100
0.002809
0.006421
0.004067
0.007012
0.004051
0.007328
0.008013
0.008278
0.005142
0.005947
0.006953
0.005398
0.006326
0.006526
0.004900
0.002805
0.007206
0.002302
0.001902
0.003150
0.005301
0.006982
0.002234
0.003998
0.002110
0.004145
0.007890
0.002364
0.004778
0.007729
0.003129
0.007434
0.004528
0.002179
0.006422
0.004594
0.009652
0.003403
0.002649
0.003131
0.004090
0.002035
0.004714
0.006118
0.004076
0.002614
0.004475
0.002090
0.004331
0.006627
0.004619
0.006664
0.005278
0.003937
0.004192
0.002136
0.002482
0.008150
0.005662
0.008229
0.003462
0.009078
0.002347
0.005765
0.001877
0.004642
0.003154
0.003985
0.002491
0.003759
0.002921
0.004175
0.004875
0.002043
0.002987
0.005524
0.008483
0.003797
0.006174
0.009425
0.008960
0.009404
0.007381
0.004172
0.005392
0.010507
0.004616
0.009870
0.004447
0.009353
0.004624
0.007955
0.004140
0.006406
0.004157
0.008454
0.003207
0.004765
0.010658
0.008141
0.007549
0.011029
0.004300
0.008807
0.002965
0.008681
0.005460
0.010527
0.004535
0.008688
0.005834
0.003536
0.002344
0.005730
0.007450
0.008665
0.007080
0.010445
0.006445
0.003824
0.007044
0.004238
0.005476
0.003566
0.006136
0.005102
0.009395
0.004941
0.009913
0.009420
0.010083
0.006670
0.010953
0.007794
0.009799
0.008121
0.004730
0.006234
0.009127
0.002760
0.008951
0.002228
0.001987
0.004006
0.006638
0.007637
0.004497
0.003029
0.004795
0.002883
0.007787
0.006066
0.002263
0.007053
0.007082
0.005510
0.006458
0.005647
0.004370
0.008429
0.006225
0.003469
0.004074
0.005248
0.003165
0.004473
0.003361
0.006980
0.005275
0.005674
0.002599
0.004981
0.002581
0.007582
0.007163
0.006574
0.005948
0.006070
0.003980
0.004473
0.007102
0.004841
0.007935
0.007111
0.008017
0.005561
0.005521
0.004747
0.004576
0.003782
0.004060
0.004073
0.004541
0.003050
0.004941
0.004690
0.002164
0.006036
0.005349
0.005825
0.008369
0.005050
0.008550
0.006516
0.007984
0.002447
0.005482
0.007584
0.004537
0.005688
0.002262
0.002923
0.007759
0.003216
0.002069
0.005851
0.007645
0.005925
0.006009
0.007166
0.007487
0.005533
0.006756
0.004456
0.003801
0.010258
0.008540
0.008260
0.007624
0.007595
0.008141
0.007530
0.007792
0.007874
0.006702
0.002885
0.004294
0.006090
0.009795
0.011454
0.006777
0.008089
0.009877
0.008018
0.007580
0.006277
0.004867
0.004674
0.009166
0.006798
0.004915
0.007438
0.007526
0.003036
0.007891
0.007737
0.005705
0.007109
0.002258
0.003170
0.005677
0.004400
0.009502
0.008193
0.007132
0.008136
0.003417
0.003261
0.002545
0.005776
0.008960
0.002693
0.004146
0.007351
0.008258
0.007990
0.007431
0.002785
0.004729
0.006685
0.003618
0.002995
0.006672
0.006959
0.004141
0.005389
0.006730
0.007681
0.007113
0.008430
0.008803
0.010936
0.009490
0.010043
0.006105
0.008610
0.010497
0.007313
0.004755
0.005839
0.004021
0.002685
0.003077
0.008824
0.004286
0.007373
0.002909
