# vtk DataFile Version 2.0
Unstructured Grid Example
ASCII
DATASET UNSTRUCTURED_GRID
POINTS 1108 float
0.999755 -0.000094 0.002315 
-0.999755 0.000091 -0.002293 
-0.000120 0.998657 0.000354 
0.000104 -0.998627 -0.000367 
0.002278 0.000356 1.001604 
-0.002268 -0.000369 -1.001591 
1.199766 -0.000065 0.001534 
-1.199770 0.000042 -0.001535 
-0.000085 1.198699 0.000240 
0.000078 -1.198718 -0.000260 
0.001521 0.000240 1.201510 
-0.001529 -0.000249 -1.201518 
0.980509 0.194814 0.002328 
0.923552 0.382184 0.002266 
0.831075 0.554835 0.002100 
0.706673 0.706162 0.001888 
0.555152 0.830325 0.001533 
0.382349 0.922587 0.001185 
0.194864 0.979421 0.000792 
-0.195098 0.979544 -0.000060 
-0.382567 0.922767 -0.000516 
-0.555405 0.830532 -0.000981 
-0.706890 0.706387 -0.001386 
-0.831204 0.555066 -0.001688 
-0.923666 0.382402 -0.001996 
-0.980558 0.194993 -0.002178 
-0.980507 -0.194832 -0.002309 
-0.923582 -0.382202 -0.002247 
-0.831134 -0.554861 -0.002085 
-0.706728 -0.706177 -0.001871 
-0.555181 -0.830324 -0.001553 
-0.382363 -0.922584 -0.001217 
-0.194865 -0.979430 -0.000786 
0.195065 -0.979507 0.000061 
0.382562 -0.922720 0.000509 
0.555395 -0.830515 0.001005 
0.706894 -0.706383 0.001380 
0.831207 -0.555060 0.001691 
0.923675 -0.382406 0.002001 
0.980557 -0.195000 0.002184 
0.002246 -0.194647 0.982189 
0.002145 -0.382114 0.924987 
0.001936 -0.554802 0.832210 
0.001676 -0.706121 0.707484 
0.001363 -0.830242 0.555697 
0.000950 -0.922511 0.382576 
0.000529 -0.979348 0.194830 
-0.000343 -0.979616 -0.195544 
-0.000774 -0.923011 -0.383324 
-0.001189 -0.830934 -0.556468 
-0.001533 -0.706888 -0.708277 
-0.001818 -0.555597 -0.832903 
-0.002060 -0.382870 -0.925508 
-0.002196 -0.195383 -0.982463 
-0.002243 0.194653 -0.982184 
-0.002121 0.382117 -0.924945 
-0.001953 0.554797 -0.832204 
-0.001686 0.706126 -0.707504 
-0.001359 0.830253 -0.555709 
-0.000966 0.922514 -0.382590 
-0.000549 0.979349 -0.194838 
0.000324 0.979615 0.195538 
0.000783 0.922999 0.383354 
0.001190 0.830941 0.556460 
0.001546 0.706879 0.708266 
0.001834 0.555591 0.832916 
0.002067 0.382857 0.925482 
0.002210 0.195369 0.982446 
0.981444 -0.000022 0.197604 
0.925379 0.000056 0.385545 
0.833643 0.000109 0.558731 
0.709620 0.000166 0.710484 
0.558189 0.000251 0.834829 
0.385240 0.000293 0.926900 
0.197485 0.000323 0.983169 
-0.192841 0.000355 0.981479 
-0.380360 0.000389 0.923652 
-0.553186 0.000340 0.830457 
-0.704696 0.000317 0.705616 
-0.829205 0.000298 0.553717 
-0.922094 0.000207 0.380653 
-0.979674 0.000155 0.192939 
-0.981447 0.000018 -0.197587 
-0.925361 -0.000055 -0.385525 
-0.833602 -0.000103 -0.558722 
-0.709592 -0.000166 -0.710472 
-0.558170 -0.000232 -0.834864 
-0.385241 -0.000286 -0.926905 
-0.197479 -0.000329 -0.983167 
0.192861 -0.000376 -0.981479 
0.380370 -0.000388 -0.923659 
0.553210 -0.000354 -0.830469 
0.704714 -0.000324 -0.705614 
0.829203 -0.000294 -0.553721 
0.922092 -0.000223 -0.380640 
0.979696 -0.000166 -0.192934 
1.184963 0.187541 0.001539 
1.140945 0.370510 0.001532 
1.068796 0.544339 0.001458 
0.970374 0.704717 0.001393 
0.848064 0.847693 0.001271 
0.704873 0.969829 0.001054 
0.544377 1.068050 0.000896 
0.370504 1.139989 0.000683 
0.187527 1.183912 0.000501 
-0.187692 1.183995 -0.000021 
-0.370665 1.140172 -0.000295 
-0.544561 1.068233 -0.000467 
-0.705042 0.970046 -0.000664 
-0.848259 0.847902 -0.000876 
-0.970582 0.704860 -0.001124 
-1.068939 0.544492 -0.001244 
-1.141063 0.370630 -0.001360 
-1.185023 0.187647 -0.001460 
-1.184972 -0.187540 -0.001546 
-1.140975 -0.370521 -0.001528 
-1.068843 -0.544355 -0.001461 
-0.970420 -0.704746 -0.001382 
-0.848066 -0.847713 -0.001232 
-0.704875 -0.969848 -0.001049 
-0.544389 -1.068048 -0.000885 
-0.370511 -1.139996 -0.000687 
-0.187529 -1.183905 -0.000504 
0.187673 -1.183986 0.000016 
0.370648 -1.140134 0.000287 
0.544536 -1.068216 0.000474 
0.705027 -0.970031 0.000679 
0.848248 -0.847911 0.000886 
0.970578 -0.704866 0.001145 
1.068939 -0.544498 0.001251 
1.141065 -0.370636 0.001361 
1.185021 -0.187659 0.001467 
-0.000199 -1.184088 -0.188002 
-0.000404 -1.140377 -0.371140 
-0.000638 -1.068627 -0.545249 
-0.000808 -0.970549 -0.706029 
-0.001032 -0.848522 -0.849434 
-0.001232 -0.705553 -0.972001 
-0.001319 -0.545078 -1.070637 
-0.001411 -0.371127 -1.142853 
-0.001490 -0.187994 -1.186829 
-0.001505 0.187488 -1.186588 
-0.001465 0.370580 -1.142350 
-0.001391 0.544424 -1.069996 
-0.001283 0.704798 -0.971281 
-0.001129 0.847775 -0.848752 
-0.000912 0.969865 -0.705290 
-0.000744 1.068020 -0.544620 
-0.000577 1.139906 -0.370622 
-0.000307 1.183853 -0.187475 
0.000210 1.184108 0.188014 
0.000401 1.140360 0.371157 
0.000591 1.068660 0.545195 
0.000804 0.970557 0.706030 
0.001032 0.848512 0.849439 
0.001254 0.705551 0.971971 
0.001330 0.545073 1.070630 
0.001423 0.371125 1.142832 
0.001497 0.188002 1.186822 
0.001520 -0.187501 1.186585 
0.001465 -0.370567 1.142377 
0.001389 -0.544440 1.070000 
0.001288 -0.704808 0.971257 
0.001122 -0.847779 0.848733 
0.000907 -0.969858 0.705275 
0.000741 -1.068010 0.544611 
0.000573 -1.139904 0.370609 
0.000301 -1.183847 0.187450 
-1.184216 0.000100 0.186257 
-1.139637 0.000110 0.369249 
-1.067143 0.000168 0.543099 
-0.968612 0.000166 0.703598 
-0.846398 0.000236 0.846962 
-0.703318 0.000237 0.969575 
-0.543009 0.000241 1.068395 
-0.369253 0.000234 1.141179 
-0.186264 0.000250 1.185930 
0.189417 0.000215 1.187489 
0.372773 0.000213 1.144107 
0.547067 0.000187 1.072426 
0.707856 0.000150 0.974096 
0.851030 0.000124 0.851586 
0.973183 0.000103 0.708118 
1.071220 0.000044 0.547191 
1.142631 0.000002 0.372825 
1.185792 -0.000028 0.189388 
1.184223 -0.000108 -0.186233 
1.139625 -0.000141 -0.369257 
1.067131 -0.000171 -0.543098 
0.968627 -0.000180 -0.703606 
0.846393 -0.000230 -0.846973 
0.703313 -0.000222 -0.969582 
0.543015 -0.000238 -1.068408 
0.369275 -0.000243 -1.141174 
0.186264 -0.000244 -1.185942 
-0.189403 -0.000211 -1.187475 
-0.372750 -0.000208 -1.144108 
-0.547068 -0.000196 -1.072446 
-0.707846 -0.000186 -0.974054 
-0.851017 -0.000123 -0.851568 
-0.973157 -0.000098 -0.708097 
-1.071185 -0.000037 -0.547171 
-1.142616 0.000001 -0.372817 
-1.185792 0.000024 -0.189383 
0.817149 -0.396293 -0.413242 
0.416115 -0.792641 -0.442644 
0.392113 -0.377358 -0.837770 
0.891485 -0.298212 -0.335027 
0.295715 -0.893415 -0.334614 
0.680047 -0.335673 -0.648193 
0.556251 -0.629672 -0.539109 
0.869432 -0.480331 -0.106812 
0.179122 -0.619325 -0.764487 
0.610675 -0.171534 -0.770181 
0.871789 -0.156335 -0.458702 
0.205738 -0.851427 -0.480800 
0.952618 -0.138413 -0.264003 
0.801948 -0.292547 -0.515986 
0.682368 -0.643044 -0.342460 
0.463684 -0.861282 -0.201165 
0.628455 -0.756387 -0.173835 
0.524995 -0.476893 -0.702593 
0.795128 -0.142331 -0.584768 
0.556516 -0.752422 -0.347789 
0.985186 -0.122840 -0.111399 
0.771349 -0.616313 -0.150594 
0.152239 -0.947354 -0.277828 
0.937542 -0.306405 -0.157165 
0.734538 -0.469295 -0.485507 
0.268533 -0.949861 -0.152195 
0.547764 -0.300568 -0.778374 
0.332617 -0.704392 -0.625597 
0.833060 -0.468200 -0.288395 
0.496185 -0.181526 -0.847081 
0.146369 -0.757438 -0.635964 
0.193327 -0.480551 -0.855628 
0.175032 -0.318137 -0.932250 
0.349742 -0.556010 -0.752906 
0.636631 -0.480820 -0.599439 
0.124383 -0.983013 -0.125480 
0.446676 -0.601126 -0.660652 
0.327257 -0.215933 -0.919318 
0.202886 -0.133067 -0.970388 
0.499981 0.581884 -0.637422 
0.503414 0.783229 -0.358309 
0.806514 0.371848 -0.453368 
0.398515 0.467769 -0.786393 
0.349825 0.884631 -0.301490 
0.288879 0.312471 -0.903852 
0.168032 0.163139 -0.972392 
0.759302 0.215762 -0.609011 
0.670791 0.536699 -0.506285 
0.502204 0.845751 -0.169498 
0.599585 0.175690 -0.777516 
0.182633 0.876563 -0.441301 
0.167029 0.474152 -0.863765 
0.554641 0.682701 -0.470077 
0.151239 0.952972 -0.255919 
0.387822 0.138885 -0.909747 
0.121583 0.322157 -0.939017 
0.624786 0.702000 -0.334649 
0.113626 0.624401 -0.771826 
0.166636 0.754083 -0.633054 
0.299833 0.623782 -0.719372 
0.855786 0.485381 -0.169208 
0.607059 0.392830 -0.686701 
0.375088 0.765336 -0.518656 
0.759490 0.553090 -0.334987 
0.125310 0.984334 -0.110650 
0.288895 0.945361 -0.139284 
0.706902 0.689417 -0.146769 
0.945481 0.146611 -0.283610 
0.471210 0.304737 -0.825121 
0.853521 0.409481 -0.314689 
0.874645 0.170137 -0.447709 
0.938504 0.292254 -0.175056 
0.894381 0.283271 -0.339076 
0.982028 0.128242 -0.129682 
0.723267 0.383681 -0.568963 
0.463347 0.460307 0.761702 
0.453708 0.804702 0.384740 
0.833021 0.411958 0.374862 
0.335197 0.314379 0.892009 
0.304511 0.904665 0.297405 
0.906698 0.337743 0.258010 
0.963739 0.168532 0.212728 
0.553119 0.632568 0.546167 
0.110633 0.481142 0.871926 
0.755098 0.166911 0.640093 
0.445231 0.160672 0.885414 
0.429336 0.883601 0.184263 
0.865369 0.472482 0.170245 
0.264244 0.142059 0.957363 
0.254181 0.955516 0.143184 
0.938798 0.322037 0.125896 
0.615919 0.160092 0.776907 
0.518271 0.292253 0.808671 
0.320066 0.629144 0.711500 
0.775447 0.620439 0.116251 
0.669189 0.722964 0.171739 
0.590742 0.495105 0.641954 
0.194747 0.753263 0.630165 
0.760521 0.577713 0.300311 
0.630294 0.685023 0.368688 
0.391323 0.719665 0.576498 
0.552500 0.802861 0.223999 
0.110524 0.984943 0.124228 
0.114710 0.123901 0.988078 
0.467617 0.595123 0.657584 
0.152763 0.613154 0.777311 
0.704833 0.507132 0.501114 
0.644920 0.350665 0.684513 
0.160078 0.309869 0.939964 
0.166049 0.947955 0.269405 
0.786165 0.320196 0.534645 
0.842196 0.140881 0.526921 
0.217361 0.864320 0.454290 
0.888136 0.233584 0.402062 
0.258774 0.477231 0.843044 
0.512577 -0.787462 0.343185 
0.331795 -0.372438 0.869779 
0.328104 -0.872951 0.360078 
0.151597 -0.465054 0.873813 
0.515883 -0.158341 0.846539 
0.426910 -0.883753 0.188583 
0.608568 -0.546741 0.579009 
0.269097 -0.174413 0.950295 
0.228072 -0.955847 0.179504 
0.913432 -0.373934 0.164921 
0.770962 -0.401000 0.500026 
0.738192 -0.659440 0.142737 
0.870309 -0.188826 0.461097 
0.955824 -0.181656 0.236938 
0.509218 -0.322277 0.802269 
0.567721 -0.676345 0.471977 
0.611202 -0.774070 0.164025 
0.708679 -0.637232 0.305795 
[...]
POINT_DATA 1108
SCALARS u float 1
LOOKUP_TABLE default
0.002330
0.002308
0.001394
0.001425
0.002809
0.002795
0.001553
0.001553
0.001325
0.001310
0.002157
0.002169
0.002361
0.002344
0.002260
0.002155
0.001959
0.001786
0.001594
0.001242
0.001232
0.001367
0.001577
0.001782
0.002027
0.002192
0.002340
0.002318
0.002228
0.002123
0.001969
0.001806
0.001583
0.001280
0.001272
0.001398
0.001572
0.001785
0.002030
0.002197
0.002685
0.002480
0.002210
0.001980
0.001838
0.001669
0.001554
0.001300
0.001328
0.001583
0.001941
0.002315
0.002633
0.002779
0.002679
0.002440
0.002225
0.001990
0.001829
0.001675
0.001558
0.001294
0.001356
0.001577
0.001946
0.002336
0.002621
0.002779
0.002599
0.003232
0.003838
0.004213
0.004267
0.003968
0.003394
0.002380
0.002367
0.002613
0.002852
0.002942
0.002712
0.002426
0.002582
0.003204
0.003807
0.004187
0.004282
0.003972
0.003389
0.002365
0.002356
0.002588
0.002839
0.002941
0.002724
0.002421
0.001572
0.001596
0.001580
0.001590
0.001590
0.001522
0.001520
0.001484
0.001420
0.001231
0.001145
0.001104
0.001064
0.001110
0.001246
0.001307
0.001389
0.001476
0.001577
0.001585
0.001567
0.001558
0.001548
0.001505
0.001513
0.001478
0.001426
0.001241
0.001182
0.001128
0.001088
0.001116
0.001264
0.001312
0.001389
0.001482
0.001189
0.001029
0.000978
0.001095
0.001373
0.001719
0.001966
0.002144
0.002205
0.002043
0.001837
0.001639
0.001468
0.001376
0.001322
0.001412
0.001492
0.001428
0.001175
0.001048
0.000902
0.001090
0.001376
0.001715
0.001968
0.002136
0.002206
0.002051
0.001855
0.001637
0.001461
0.001365
0.001324
0.001420
0.001495
0.001437
0.001782
0.002267
0.002673
0.002819
0.002655
0.002389
0.001971
0.001587
0.001637
0.002836
0.003452
0.003947
0.004132
0.003953
0.003646
0.003134
0.002424
0.001760
0.001798
0.002273
0.002683
0.002803
0.002652
0.002387
0.001960
0.001567
0.001642
0.002817
0.003440
0.003965
0.004094
0.003931
0.003613
0.003097
0.002409
0.001755
0.002375
0.001502
0.002079
0.002382
0.001318
0.002481
0.001909
0.001915
0.001840
0.002557
0.002699
0.001401
0.002445
0.002593
0.001928
0.001407
0.001613
0.002084
0.002814
0.001664
0.002263
0.001796
0.001273
0.002157
0.002324
0.001248
0.002346
0.001621
0.002139
0.002352
0.001617
0.002046
0.002244
0.001828
0.002244
0.001279
0.001828
0.002195
0.002314
0.002711
0.002451
0.002950
0.002530
0.002161
0.002366
0.002391
0.003012
0.002863
0.002170
0.002798
0.002027
0.002244
0.002705
0.001827
0.002442
0.002359
0.002580
0.002130
0.002105
0.002367
0.002494
0.002910
0.002427
0.002752
0.001637
0.001858
0.002352
0.002637
0.002652
0.002740
0.002935
0.002496
0.002781
0.002403
0.002986
0.003649
0.002055
0.003006
0.003708
0.001594
0.002727
0.002697
0.002886
0.002770
0.004024
0.004094
0.001720
0.002426
0.003649
0.001526
0.002456
0.004295
0.004069
0.002859
0.002201
0.002101
0.003478
0.002201
0.002521
0.002445
0.002518
0.001922
0.001367
0.003159
0.003134
0.002553
0.003178
0.003908
0.003199
0.001404
0.003621
0.003743
0.001714
0.003252
0.003206
0.001693
0.003254
0.001486
0.002619
0.004034
0.001342
0.002887
0.003464
0.001331
0.002227
0.003155
0.001749
0.003371
0.002638
0.003677
0.002208
0.001551
0.002098
0.003064
0.002935
0.001831
0.001553
0.001898
0.001988
0.002472
0.003899
0.001626
0.003021
0.002635
0.002433
0.003555
0.002257
0.002214
0.002697
0.004079
0.003758
0.002774
0.001369
0.002729
0.002467
0.002916
0.002564
0.002186
0.002363
0.002379
0.002996
0.002880
0.002193
0.002835
0.002028
0.002258
0.002663
0.001810
0.002452
0.002359
0.002578
0.002118
0.002102
0.002370
0.002446
0.002924
0.002432
0.002735
0.001636
0.001869
0.002332
0.002615
0.002652
0.002745
0.002923
0.002462
0.002762
0.002395
0.003005
0.003581
0.002032
0.002953
0.003712
0.001609
0.002707
0.002683
0.002894
0.002759
0.004020
0.004090
0.001729
0.002404
0.003635
0.001518
0.002435
0.004249
0.004060
0.002818
0.002168
0.002109
0.003462
0.002145
0.002509
0.002441
0.002508
0.001931
0.001382
0.003162
0.003066
0.002548
0.003158
0.003873
0.003209
0.001429
0.003587
0.003704
0.001725
0.003248
0.003205
0.001679
0.003247
0.001481
0.002623
0.004057
0.001326
0.002877
0.003464
0.001313
0.002224
0.003134
0.001745
0.003353
0.002622
0.003660
0.002214
0.001524
0.002086
0.003045
0.002917
0.001820
0.001557
0.001901
0.001990
0.002467
0.003887
0.001629
0.003014
0.002615
0.002403
0.003538
0.002235
0.002209
0.002681
0.004070
0.003766
0.002749
0.001352
0.002376
0.001502
0.002094
0.002392
0.001324
0.002482
0.001907
0.001918
0.001843
0.002569
0.002704
0.001357
0.002430
0.002592
0.001922
0.001387
0.001569
0.002088
0.002817
0.001652
0.002254
0.001789
0.001274
0.002161
0.002323
0.001229
0.002359
0.001643
0.002136
0.002369
0.001627
0.002058
0.002253
0.001845
0.002242
0.001264
0.001845
0.002204
0.002320
0.001727
0.002628
0.002772
0.001972
0.001022
0.001948
0.001090
0.002941
0.001567
0.001223
0.002655
0.003580
0.001449
0.001934
0.003293
0.001174
0.003918
0.001834
0.001175
0.001770
0.001357
0.000978
0.002558
0.001269
0.002311
0.002236
0.001541
0.001085
0.001927
0.001299
0.002928
0.003159
0.002131
0.002072
0.002717
0.001158
0.002437
0.003783
0.001259
0.003601
0.002348
0.003988
0.001460
0.003095
0.001193
0.002569
0.001061
0.001306
0.001009
0.001707
0.000989
0.002389
0.001656
0.001316
0.001588
0.001562
0.003025
0.003410
0.001111
0.003600
0.002211
0.003226
0.002554
0.002581
0.001897
0.001969
0.002361
0.001821
0.002183
0.001623
0.001609
0.001761
0.001624
0.002869
0.001915
0.001766
0.001730
0.002872
0.002311
0.001525
0.002455
0.002298
0.001892
0.001955
0.001721
0.002510
0.001574
0.002675
0.001787
0.001907
0.001610
0.002009
0.002293
0.002186
0.002674
0.002807
0.002496
0.002703
0.002264
0.001552
0.002825
0.001853
0.002565
0.001548
0.002684
0.002076
0.002898
0.002037
0.002677
0.002192
0.001909
0.002089
0.002300
0.002498
0.002788
0.001673
0.001447
0.002320
0.002913
0.002099
0.001844
0.001826
0.001626
0.001552
0.003471
0.002242
0.001189
0.003467
0.002457
0.003184
0.002088
0.001101
0.003101
0.001991
0.001206
0.001595
0.002183
0.001615
0.001585
0.002394
0.001309
0.001194
0.003310
0.003887
0.004081
0.003438
0.001670
0.002640
0.001067
0.002901
0.003669
0.002668
0.001670
0.002685
0.001593
0.002119
0.001881
0.002419
0.002661
0.002621
0.003457
0.001441
0.001871
0.001396
0.001417
0.001515
0.001379
0.002822
0.001950
0.003092
0.002063
0.003804
0.004073
0.003813
0.003007
0.002839
0.003284
0.001636
0.002597
0.002828
0.002241
0.001212
0.003878
0.001278
0.001001
0.001289
0.002188
0.001653
0.001241
0.001500
0.002148
0.001473
0.001926
0.001570
0.001893
0.001212
0.001629
0.001170
0.001469
0.001398
0.001554
0.000981
0.001283
0.002463
0.001986
0.002091
0.002640
0.001614
0.001566
0.001235
0.001911
0.001603
0.002339
0.001773
0.001601
0.001399
0.001068
0.001176
0.001405
0.001653
0.001917
0.001629
0.002198
0.001578
0.001298
0.001317
0.001162
0.001381
0.001075
0.001304
0.001313
0.001852
0.001375
0.001931
0.002400
0.002649
0.001766
0.002417
0.001787
0.002171
0.001597
0.001836
0.001921
0.001466
0.001177
0.002458
0.001161
0.001194
0.001970
0.003079
0.003397
0.002154
0.001096
0.002081
0.001128
0.001655
0.001300
0.001919
0.003795
0.003971
0.002450
0.001278
0.003367
0.002337
0.004070
0.001450
0.001909
0.001584
0.001299
0.001032
0.002632
0.003778
0.002595
0.001689
0.001232
0.001150
0.001982
0.003355
0.002829
0.003276
0.003626
0.002685
0.002542
0.003118
0.001474
0.002626
0.001456
0.003849
0.003800
0.002882
0.004082
0.001862
0.003273
0.001573
0.002728
0.001124
0.001444
0.001429
0.001929
0.001212
0.002064
0.002632
0.001288
0.001631
0.003281
0.002043
0.003311
0.001370
0.002868
0.002567
0.002183
0.001645
0.001233
0.001486
0.002144
0.001467
0.001926
0.001206
0.001566
0.001902
0.001219
0.001194
0.001631
0.001131
0.001398
0.001565
0.000973
0.001293
0.002462
0.001972
0.002074
0.002637
0.001611
0.001566
0.001073
0.001909
0.001589
0.002345
0.001773
0.001602
0.001443
0.001365
0.001687
0.001925
0.001608
0.002197
0.001559
0.001302
0.001348
0.001139
0.001536
0.001065
0.001325
0.001296
0.001853
0.001362
0.001938
0.002391
0.002640
0.001746
0.002414
0.001775
0.002172
0.001603
0.001835
0.001439
0.001931
0.001351
0.002449
0.001073
0.001218
0.001200
0.001724
0.002628
0.002995
0.001984
0.001028
0.001958
0.001103
0.001573
0.001240
0.003600
0.001450
0.003727
0.001929
0.003313
0.001173
0.003885
0.001831
0.001186
0.001783
0.001363
0.000990
0.002581
0.001271
0.003553
0.002233
0.001544
0.001099
0.001936
0.001311
0.002891
0.002358
0.003181
0.003264
0.002153
0.002073
0.002744
0.001155
0.002460
0.003801
0.001255
0.003454
0.002349
0.003993
0.001451
0.003116
0.001190
0.002594
0.001058
0.001320
0.001024
0.001713
0.000997
0.002406
0.001648
0.001328
0.001597
0.003067
0.001567
0.003032
0.001120
0.002635
0.002460
0.002307
0.002721
0.002614
0.001975
0.001696
0.001819
0.001585
0.002258
0.001602
0.001679
0.001860
0.002272
0.002818
0.002880
0.001922
0.002355
0.001839
0.002841
0.001954
0.002117
0.001705
0.001547
0.001788
0.001748
0.002605
0.002662
0.001728
0.001554
0.001618
0.001568
0.002745
0.002629
0.002905
0.002787
0.002608
0.002173
0.002275
0.001826
0.002642
0.002320
0.002841
0.001845
0.002877
0.002247
0.002478
0.002100
0.001985
0.001879
0.001569
0.001968
0.001678
0.002495
0.002536
0.001776
0.001454
0.002670
0.002444
0.002309
0.001544
0.001881
0.002305
0.001747
0.002033
0.002083
0.003248
0.002290
0.002501
0.002859
0.002797
0.001037
0.000538
0.002076
0.001939
0.002354
0.002086
0.003424
0.001987
0.002140
0.002299
0.003484
0.002652
0.000480
0.001343
0.001663
0.001599
0.002012
0.003232
0.002746
0.003076
0.002672
0.002860
0.002335
0.003463
0.003335
0.003009
0.002872
0.001865
0.003533
0.003467
0.001343
0.002740
0.001220
0.002654
0.003978
0.002196
0.002823
0.002317
0.003801
0.001609
0.001624
0.003433
0.001750
0.002055
0.003179
0.003829
0.002653
0.002578
0.002349
0.002548
0.001861
0.002596
0.003040
0.002597
0.002621
0.002265
0.002439
0.002507
0.002621
0.003305
0.003913
0.002019
0.002751
0.003255
0.003311
0.003318
0.003696
0.002241
0.002692
0.003047
0.003672
0.003296
0.003143
0.002891
0.003357
0.003168
0.003892
0.003473
0.002810
0.001469
0.001617
0.001275
0.002089
0.001496
0.001454
0.002532
0.002855
0.002413
0.002491
0.002663
0.002740
0.001310
0.001004
0.002598
0.000783
