# vtk DataFile Version 2.0
Unstructured Grid Example
ASCII
DATASET UNSTRUCTURED_GRID
POINTS 1108 float
0.999922 -0.000030 0.000736 
-0.999922 0.000029 -0.000729 
-0.000038 0.999573 0.000112 
0.000033 -0.999563 -0.000117 
0.000724 0.000113 1.000510 
-0.000721 -0.000117 -1.000506 
1.199926 -0.000021 0.000488 
-1.199927 0.000013 -0.000488 
-0.000027 1.199586 0.000076 
0.000025 -1.199592 -0.000083 
0.000484 0.000076 1.200480 
-0.000486 -0.000079 -1.200483 
0.980697 0.195002 0.000740 
0.923775 0.382525 0.000721 
0.831344 0.555336 0.000668 
0.706969 0.706806 0.000600 
0.555437 0.831105 0.000488 
0.382577 0.923468 0.000377 
0.195018 0.980351 0.000252 
-0.195093 0.980391 -0.000019 
-0.382647 0.923526 -0.000164 
-0.555518 0.831171 -0.000312 
-0.707038 0.706878 -0.000441 
-0.831385 0.555410 -0.000537 
-0.923812 0.382594 -0.000635 
-0.980713 0.195059 -0.000693 
-0.980697 -0.195008 -0.000734 
-0.923785 -0.382530 -0.000715 
-0.831363 -0.555345 -0.000663 
-0.706986 -0.706811 -0.000595 
-0.555446 -0.831105 -0.000494 
-0.382581 -0.923468 -0.000387 
-0.195019 -0.980354 -0.000250 
0.195082 -0.980379 0.000020 
0.382645 -0.923511 0.000162 
0.555514 -0.831166 0.000320 
0.707039 -0.706877 0.000439 
0.831386 -0.555408 0.000538 
0.923815 -0.382595 0.000636 
0.980713 -0.195062 0.000694 
0.000714 -0.194949 0.981232 
0.000682 -0.382502 0.924232 
0.000616 -0.555326 0.831705 
0.000533 -0.706793 0.707227 
0.000433 -0.831079 0.555610 
0.000302 -0.923444 0.382649 
0.000168 -0.980328 0.195008 
-0.000109 -0.980413 -0.195235 
-0.000246 -0.923603 -0.382887 
-0.000378 -0.831299 -0.555856 
-0.000488 -0.707037 -0.707479 
-0.000578 -0.555579 -0.831925 
-0.000655 -0.382743 -0.924398 
-0.000698 -0.195183 -0.981319 
-0.000713 0.194951 -0.981230 
-0.000675 0.382503 -0.924218 
-0.000621 0.555324 -0.831703 
-0.000536 0.706795 -0.707233 
-0.000432 0.831083 -0.555614 
-0.000307 0.923445 -0.382654 
-0.000175 0.980329 -0.195010 
0.000103 0.980413 0.195233 
0.000249 0.923599 0.382897 
0.000378 0.831301 0.555853 
0.000492 0.707034 0.707476 
0.000583 0.555577 0.831930 
0.000657 0.382739 0.924389 
0.000703 0.195179 0.981314 
0.980995 -0.000007 0.195890 
0.924357 0.000018 0.383594 
0.832161 0.000035 0.556576 
0.707906 0.000053 0.708181 
0.556403 0.000080 0.832538 
0.383496 0.000093 0.924840 
0.195852 0.000103 0.981544 
-0.194375 0.000113 0.981006 
-0.381944 0.000124 0.923807 
-0.554812 0.000108 0.831147 
-0.706340 0.000101 0.706633 
-0.830749 0.000095 0.554981 
-0.923312 0.000066 0.382038 
-0.980432 0.000049 0.194406 
-0.980996 0.000006 -0.195884 
-0.924351 -0.000017 -0.383587 
-0.832148 -0.000033 -0.556573 
-0.707897 -0.000053 -0.708177 
-0.556397 -0.000074 -0.832549 
-0.383497 -0.000091 -0.924842 
-0.195850 -0.000105 -0.981543 
0.194381 -0.000120 -0.981006 
0.381948 -0.000124 -0.923810 
0.554819 -0.000112 -0.831151 
0.706346 -0.000103 -0.706632 
0.830749 -0.000094 -0.554982 
0.923311 -0.000071 -0.382034 
0.980439 -0.000053 -0.194405 
1.185142 0.187664 0.000489 
1.141165 0.370722 0.000487 
1.069077 0.544646 0.000464 
0.970678 0.705143 0.000443 
0.848380 0.848262 0.000404 
0.705193 0.970505 0.000335 
0.544658 1.068840 0.000285 
0.370720 1.140861 0.000217 
0.187660 1.184808 0.000159 
-0.187712 1.184835 -0.000007 
-0.370771 1.140919 -0.000094 
-0.544716 1.068898 -0.000148 
-0.705247 0.970574 -0.000211 
-0.848442 0.848329 -0.000279 
-0.970745 0.705189 -0.000357 
-1.069122 0.544694 -0.000396 
-1.141203 0.370760 -0.000433 
-1.185161 0.187698 -0.000464 
-1.185145 -0.187664 -0.000492 
-1.141175 -0.370725 -0.000486 
-1.069092 -0.544651 -0.000465 
-0.970693 -0.705153 -0.000440 
-0.848381 -0.848269 -0.000392 
-0.705194 -0.970511 -0.000334 
-0.544661 -1.068839 -0.000282 
-0.370722 -1.140863 -0.000219 
-0.187660 -1.184806 -0.000160 
0.187706 -1.184832 0.000005 
0.370766 -1.140907 0.000091 
0.544708 -1.068892 0.000151 
0.705242 -0.970569 0.000216 
0.848439 -0.848332 0.000282 
0.970743 -0.705191 0.000364 
1.069122 -0.544696 0.000398 
1.141203 -0.370762 0.000433 
1.185161 -0.187702 0.000467 
-0.000063 -1.184864 -0.187811 
-0.000129 -1.140984 -0.370922 
-0.000203 -1.069023 -0.544935 
-0.000257 -0.970734 -0.705561 
-0.000328 -0.848526 -0.848816 
-0.000392 -0.705409 -0.971196 
-0.000420 -0.544880 -1.069662 
-0.000449 -0.370918 -1.141772 
-0.000474 -0.187808 -1.185736 
-0.000479 0.187647 -1.185659 
-0.000466 0.370744 -1.141612 
-0.000442 0.544673 -1.069458 
-0.000408 0.705169 -0.970967 
-0.000359 0.848289 -0.848599 
-0.000290 0.970517 -0.705326 
-0.000237 1.068830 -0.544735 
-0.000184 1.140835 -0.370757 
-0.000098 1.184789 -0.187643 
0.000067 1.184870 0.187814 
0.000128 1.140979 0.370928 
0.000188 1.069034 0.544918 
0.000256 0.970737 0.705561 
0.000328 0.848523 0.848818 
0.000399 0.705409 0.971186 
0.000423 0.544879 1.069660 
0.000452 0.370917 1.141765 
0.000476 0.187810 1.185734 
0.000484 -0.187651 1.185658 
0.000466 -0.370740 1.141621 
0.000442 -0.544678 1.069460 
0.000410 -0.705172 0.970959 
0.000357 -0.848290 0.848593 
0.000288 -0.970514 0.705321 
0.000236 -1.068827 0.544732 
0.000182 -1.140834 0.370753 
0.000096 -1.184788 0.187635 
-1.184905 0.000032 0.187256 
-1.140749 0.000035 0.370321 
-1.068551 0.000053 0.544251 
-0.970118 0.000053 0.704788 
-0.847851 0.000075 0.848030 
-0.704698 0.000075 0.970424 
-0.544223 0.000077 1.068949 
-0.370322 0.000074 1.141240 
-0.187258 0.000079 1.185450 
0.188261 0.000069 1.185946 
0.371441 0.000068 1.142171 
0.545513 0.000059 1.070231 
0.706142 0.000048 0.971862 
0.849324 0.000040 0.849501 
0.971572 0.000033 0.706225 
1.069848 0.000014 0.545553 
1.141701 0.000001 0.371458 
1.185406 -0.000009 0.188251 
1.184907 -0.000034 -0.187248 
1.140745 -0.000045 -0.370323 
1.068547 -0.000054 -0.544251 
0.970123 -0.000057 -0.704790 
0.847849 -0.000073 -0.848033 
0.704697 -0.000071 -0.970427 
0.544224 -0.000076 -1.068954 
0.370329 -0.000077 -1.141238 
0.187258 -0.000078 -1.185454 
-0.188256 -0.000067 -1.185941 
-0.371434 -0.000066 -1.142171 
-0.545514 -0.000062 -1.070238 
-0.706139 -0.000059 -0.971849 
-0.849320 -0.000039 -0.849495 
-0.971563 -0.000031 -0.706218 
-1.069837 -0.000012 -0.545546 
-1.141696 0.000000 -0.371455 
-1.185406 0.000008 -0.188250 
0.818298 -0.396603 -0.414340 
0.416931 -0.793214 -0.442879 
0.393524 -0.377430 -0.837886 
0.892513 -0.298401 -0.336270 
0.296272 -0.894116 -0.334689 
0.681493 -0.335860 -0.649052 
0.557359 -0.630130 -0.539617 
0.869867 -0.480671 -0.107996 
0.180277 -0.619503 -0.764031 
0.612259 -0.171502 -0.770910 
0.873123 -0.156360 -0.459970 
0.206502 -0.851973 -0.480622 
0.953538 -0.138438 -0.265393 
0.803306 -0.292739 -0.517102 
0.683252 -0.643572 -0.343278 
0.464130 -0.862021 -0.201586 
0.628966 -0.757008 -0.174586 
0.526321 -0.477151 -0.703035 
0.796672 -0.142326 -0.585907 
0.557312 -0.753035 -0.348317 
0.985678 -0.122853 -0.112862 
0.771872 -0.616796 -0.151590 
0.152642 -0.948108 -0.277678 
0.938142 -0.306586 -0.158495 
0.735763 -0.469681 -0.486436 
0.268795 -0.950665 -0.152289 
0.549264 -0.300650 -0.778926 
0.333654 -0.704774 -0.625609 
0.833964 -0.468561 -0.289483 
0.497728 -0.181467 -0.847517 
0.147339 -0.757774 -0.635560 
0.194633 -0.480605 -0.855140 
0.176445 -0.318057 -0.931667 
0.350969 -0.556232 -0.752925 
0.637943 -0.481164 -0.600148 
0.124529 -0.983865 -0.125363 
0.447842 -0.601466 -0.660928 
0.328748 -0.215838 -0.919227 
0.204380 -0.132889 -0.969915 
0.501371 0.582768 -0.638261 
0.504370 0.784265 -0.359207 
0.807894 0.372489 -0.454685 
0.399986 0.468491 -0.786934 
0.350561 0.885703 -0.302183 
0.290410 0.312978 -0.903926 
0.169558 0.163478 -0.971931 
0.760887 0.216247 -0.610225 
0.672134 0.537544 -0.507422 
0.502807 0.846721 -0.170439 
0.601225 0.176132 -0.778384 
0.183496 0.877591 -0.441631 
0.168435 0.474741 -0.863638 
0.555830 0.683711 -0.471062 
0.151786 0.954029 -0.256287 
0.389422 0.139267 -0.910003 
0.123062 0.322593 -0.938557 
0.625783 0.702937 -0.335756 
0.114897 0.625098 -0.771734 
0.167757 0.754961 -0.633238 
0.301161 0.624619 -0.719749 
0.856517 0.485987 -0.170618 
0.608626 0.393545 -0.687686 
0.376191 0.766370 -0.519331 
0.760611 0.553886 -0.336265 
0.125607 0.985340 -0.111032 
0.289339 0.946370 -0.139909 
0.707528 0.690216 -0.148011 
0.946486 0.146904 -0.285072 
0.472799 0.305318 -0.825762 
0.854634 0.410100 -0.316057 
0.876048 0.170528 -0.449082 
0.939248 0.292650 -0.176535 
0.895544 0.283752 -0.340495 
0.982617 0.128456 -0.131196 
0.724765 0.384370 -0.570158 
0.461877 0.460066 0.759708 
0.453144 0.805012 0.383495 
0.832143 0.411973 0.373009 
0.333591 0.314114 0.890074 
0.304196 0.905214 0.296520 
0.906128 0.337847 0.256243 
0.963250 0.168596 0.210956 
0.552095 0.632548 0.544486 
0.109287 0.481008 0.870606 
0.753526 0.166765 0.637848 
0.443489 0.160431 0.883245 
0.429219 0.884234 0.183283 
0.865118 0.472736 0.168629 
0.262593 0.141820 0.955517 
0.254139 0.956299 0.142501 
0.938625 0.322229 0.124241 
0.614172 0.159880 0.774567 
0.516600 0.291991 0.806471 
0.318870 0.629049 0.709963 
0.775419 0.620863 0.114812 
0.669057 0.723413 0.170385 
0.589426 0.494939 0.639988 
0.193772 0.753360 0.629028 
0.759976 0.577893 0.298690 
0.629655 0.685208 0.367159 
0.390373 0.719713 0.575068 
0.552282 0.803337 0.222798 
0.110483 0.985775 0.123809 
0.113134 0.123670 0.986627 
0.466404 0.595000 0.655829 
0.151565 0.613099 0.776049 
0.703741 0.507071 0.499243 
0.643399 0.350460 0.682335 
0.158561 0.309658 0.938411 
0.165766 0.948624 0.268781 
0.784830 0.320079 0.532571 
0.840791 0.140781 0.524793 
0.216727 0.864690 0.453381 
0.887108 0.233560 0.400098 
0.257352 0.477022 0.841395 
0.512013 -0.787949 0.342304 
0.330243 -0.372626 0.868203 
0.327554 -0.873625 0.359557 
0.150175 -0.465387 0.872785 
0.514137 -0.158464 0.844418 
0.426674 -0.884436 0.188020 
0.607366 -0.546890 0.577458 
0.267460 -0.174614 0.948603 
0.227816 -0.956698 0.179317 
0.913117 -0.374089 0.163444 
0.769771 -0.401084 0.498237 
0.738006 -0.659805 0.141617 
0.869092 -0.188877 0.459148 
0.955258 -0.181709 0.235231 
0.507598 -0.322384 0.800358 
0.566854 -0.676638 0.470781 
0.610993 -0.774577 0.163121 
0.708082 -0.637537 0.304531 
[...]
POINT_DATA 1108
SCALARS u float 1
LOOKUP_TABLE default
0.000741
0.000734
0.000443
0.000453
0.000893
0.000889
0.000494
0.000494
0.000422
0.000417
0.000686
0.000690
0.000751
0.000745
0.000719
0.000685
0.000623
0.000568
0.000507
0.000395
0.000392
0.000435
0.000501
0.000567
0.000645
0.000697
0.000744
0.000737
0.000709
0.000675
0.000626
0.000574
0.000504
0.000407
0.000405
0.000445
0.000500
0.000568
0.000646
0.000699
0.000854
0.000789
0.000703
0.000630
0.000585
0.000531
0.000494
0.000414
0.000422
0.000503
0.000617
0.000736
0.000837
0.000884
0.000852
0.000776
0.000708
0.000633
0.000582
0.000533
0.000496
0.000412
0.000431
0.000502
0.000619
0.000743
0.000834
0.000884
0.000827
0.001028
0.001221
0.001340
0.001357
0.001262
0.001080
0.000757
0.000753
0.000831
0.000907
0.000936
0.000862
0.000772
0.000821
0.001019
0.001211
0.001332
0.001362
0.001263
0.001078
0.000752
0.000749
0.000823
0.000903
0.000935
0.000866
0.000770
0.000500
0.000508
0.000503
0.000506
0.000506
0.000484
0.000484
0.000472
0.000452
0.000392
0.000364
0.000351
0.000338
0.000353
0.000396
0.000416
0.000442
0.000469
0.000502
0.000504
0.000498
0.000495
0.000492
0.000479
0.000481
0.000470
0.000454
0.000395
0.000376
0.000359
0.000346
0.000355
0.000402
0.000417
0.000442
0.000471
0.000378
0.000327
0.000311
0.000348
0.000437
0.000547
0.000625
0.000682
0.000701
0.000650
0.000584
0.000521
0.000467
0.000438
0.000420
0.000449
0.000475
0.000454
0.000374
0.000333
0.000287
0.000347
0.000438
0.000545
0.000626
0.000679
0.000702
0.000652
0.000590
0.000521
0.000465
0.000434
0.000421
0.000452
0.000475
0.000457
0.000567
0.000721
0.000850
0.000897
0.000844
0.000760
0.000627
0.000505
0.000521
0.000902
0.001098
0.001255
0.001314
0.001257
0.001160
0.000997
0.000771
0.000560
0.000572
0.000723
0.000853
0.000892
0.000843
0.000759
0.000623
0.000499
0.000522
0.000896
0.001094
0.001261
0.001302
0.001250
0.001149
0.000985
0.000766
0.000558
0.000755
0.000478
0.000661
0.000757
0.000419
0.000789
0.000607
0.000609
0.000585
0.000813
0.000858
0.000445
0.000778
0.000825
0.000613
0.000448
0.000513
0.000663
0.000895
0.000529
0.000720
0.000571
0.000405
0.000686
0.000739
0.000397
0.000746
0.000516
0.000680
0.000748
0.000514
0.000651
0.000714
0.000581
0.000714
0.000407
0.000581
0.000698
0.000736
0.000862
0.000780
0.000938
0.000805
0.000687
0.000753
0.000760
0.000958
0.000911
0.000690
0.000890
0.000645
0.000714
0.000860
0.000581
0.000777
0.000750
0.000821
0.000677
0.000669
0.000753
0.000793
0.000925
0.000772
0.000875
0.000521
0.000591
0.000748
0.000839
0.000843
0.000871
0.000934
0.000794
0.000884
0.000764
0.000950
0.001160
0.000654
0.000956
0.001179
0.000507
0.000867
0.000858
0.000918
0.000881
0.001280
0.001302
0.000547
0.000772
0.001161
0.000485
0.000781
0.001366
0.001294
0.000909
0.000700
0.000668
0.001106
0.000700
0.000802
0.000778
0.000801
0.000611
0.000435
0.001005
0.000997
0.000812
0.001011
0.001243
0.001017
0.000447
0.001152
0.001191
0.000545
0.001034
0.001020
0.000538
0.001035
0.000473
0.000833
0.001283
0.000427
0.000918
0.001102
0.000423
0.000708
0.001003
0.000556
0.001072
0.000839
0.001169
0.000702
0.000493
0.000667
0.000975
0.000933
0.000582
0.000494
0.000604
0.000632
0.000786
0.001240
0.000517
0.000961
0.000838
0.000774
0.001131
0.000718
0.000704
0.000858
0.001297
0.001195
0.000882
0.000436
0.000868
0.000785
0.000927
0.000815
0.000695
0.000752
0.000757
0.000953
0.000916
0.000698
0.000902
0.000645
0.000718
0.000847
0.000576
0.000780
0.000750
0.000820
0.000674
0.000669
0.000754
0.000778
0.000930
0.000774
0.000870
0.000520
0.000594
0.000742
0.000832
0.000843
0.000873
0.000929
0.000783
0.000878
0.000762
0.000956
0.001139
0.000646
0.000939
0.001180
0.000512
0.000861
0.000853
0.000921
0.000877
0.001279
0.001301
0.000550
0.000765
0.001156
0.000483
0.000774
0.001351
0.001291
0.000896
0.000689
0.000671
0.001101
0.000682
0.000798
0.000776
0.000798
0.000614
0.000439
0.001006
0.000975
0.000810
0.001004
0.001232
0.001021
0.000454
0.001141
0.001178
0.000548
0.001033
0.001019
0.000534
0.001033
0.000471
0.000834
0.001290
0.000422
0.000915
0.001102
0.000418
0.000707
0.000997
0.000555
0.001067
0.000834
0.001164
0.000704
0.000485
0.000663
0.000968
0.000928
0.000579
0.000495
0.000604
0.000633
0.000785
0.001236
0.000518
0.000959
0.000832
0.000764
0.001125
0.000711
0.000703
0.000853
0.001295
0.001198
0.000874
0.000430
0.000756
0.000478
0.000666
0.000761
0.000421
0.000789
0.000607
0.000610
0.000586
0.000817
0.000860
0.000432
0.000773
0.000824
0.000611
0.000441
0.000499
0.000664
0.000896
0.000525
0.000717
0.000569
0.000405
0.000687
0.000739
0.000391
0.000750
0.000522
0.000679
0.000753
0.000517
0.000654
0.000717
0.000587
0.000713
0.000402
0.000587
0.000701
0.000738
0.000549
0.000836
0.000882
0.000627
0.000325
0.000620
0.000347
0.000935
0.000498
0.000389
0.000844
0.001138
0.000461
0.000615
0.001047
0.000373
0.001246
0.000583
0.000374
0.000563
0.000432
0.000311
0.000814
0.000404
0.000735
0.000711
0.000490
0.000345
0.000613
0.000413
0.000931
0.001005
0.000678
0.000659
0.000864
0.000368
0.000775
0.001203
0.000400
0.001145
0.000747
0.001268
0.000464
0.000984
0.000379
0.000817
0.000337
0.000415
0.000321
0.000543
0.000315
0.000760
0.000527
0.000418
0.000505
0.000497
0.000962
0.001085
0.000353
0.001145
0.000703
0.001026
0.000812
0.000821
0.000603
0.000626
0.000751
0.000579
0.000694
0.000516
0.000512
0.000560
0.000516
0.000913
0.000609
0.000562
0.000550
0.000913
0.000735
0.000485
0.000781
0.000731
0.000602
0.000622
0.000547
0.000798
0.000500
0.000851
0.000568
0.000606
0.000512
0.000639
0.000729
0.000695
0.000850
0.000893
0.000794
0.000860
0.000720
0.000494
0.000899
0.000589
0.000816
0.000492
0.000854
0.000660
0.000922
0.000648
0.000851
0.000697
0.000607
0.000664
0.000732
0.000795
0.000887
0.000532
0.000460
0.000738
0.000926
0.000668
0.000586
0.000581
0.000517
0.000493
0.001104
0.000713
0.000378
0.001103
0.000781
0.001013
0.000664
0.000350
0.000986
0.000633
0.000384
0.000507
0.000694
0.000514
0.000504
0.000761
0.000416
0.000380
0.001053
0.001236
0.001298
0.001093
0.000531
0.000840
0.000339
0.000923
0.001167
0.000849
0.000531
0.000854
0.000507
0.000674
0.000598
0.000769
0.000846
0.000834
0.001099
0.000458
0.000595
0.000444
0.000451
0.000482
0.000439
0.000898
0.000620
0.000983
0.000656
0.001210
0.001295
0.001213
0.000956
0.000903
0.001045
0.000520
0.000826
0.000899
0.000713
0.000385
0.001233
0.000406
0.000318
0.000410
0.000696
0.000526
0.000395
0.000477
0.000683
0.000469
0.000612
0.000499
0.000602
0.000386
0.000518
0.000372
0.000467
0.000445
0.000494
0.000312
0.000408
0.000783
0.000632
0.000665
0.000840
0.000513
0.000498
0.000393
0.000608
0.000510
0.000744
0.000564
0.000509
0.000445
0.000340
0.000374
0.000447
0.000526
0.000610
0.000518
0.000699
0.000502
0.000413
0.000419
0.000370
0.000439
0.000342
0.000415
0.000418
0.000589
0.000437
0.000614
0.000763
0.000843
0.000562
0.000769
0.000568
0.000690
0.000508
0.000584
0.000611
0.000466
0.000374
0.000782
0.000369
0.000380
0.000627
0.000979
0.001080
0.000685
0.000348
0.000662
0.000359
0.000526
0.000413
0.000610
0.001207
0.001263
0.000779
0.000406
0.001071
0.000743
0.001294
0.000461
0.000607
0.000504
0.000413
0.000328
0.000837
0.001202
0.000825
0.000537
0.000392
0.000366
0.000630
0.001067
0.000900
0.001042
0.001153
0.000854
0.000808
0.000992
0.000469
0.000835
0.000463
0.001224
0.001209
0.000917
0.001298
0.000592
0.001041
0.000500
0.000868
0.000358
0.000459
0.000455
0.000613
0.000385
0.000656
0.000837
0.000410
0.000519
0.001043
0.000650
0.001053
0.000436
0.000912
0.000816
0.000694
0.000523
0.000392
0.000473
0.000682
0.000467
0.000613
0.000384
0.000498
0.000605
0.000388
0.000380
0.000519
0.000360
0.000445
0.000498
0.000310
0.000411
0.000783
0.000627
0.000660
0.000839
0.000512
0.000498
0.000341
0.000607
0.000505
0.000746
0.000564
0.000509
0.000459
0.000434
0.000537
0.000612
0.000511
0.000699
0.000496
0.000414
0.000429
0.000362
0.000489
0.000339
0.000421
0.000412
0.000589
0.000433
0.000616
0.000760
0.000840
0.000555
0.000768
0.000565
0.000691
0.000510
0.000584
0.000458
0.000614
0.000430
0.000779
0.000341
0.000387
0.000382
0.000548
0.000836
0.000952
0.000631
0.000327
0.000623
0.000351
0.000500
0.000395
0.001145
0.000461
0.001185
0.000614
0.001054
0.000373
0.001235
0.000582
0.000377
0.000567
0.000433
0.000315
0.000821
0.000404
0.001130
0.000710
0.000491
0.000349
0.000616
0.000417
0.000919
0.000750
0.001012
0.001038
0.000685
0.000659
0.000873
0.000367
0.000782
0.001209
0.000399
0.001098
0.000747
0.001270
0.000462
0.000991
0.000378
0.000825
0.000336
0.000420
0.000326
0.000545
0.000317
0.000765
0.000524
0.000422
0.000508
0.000975
0.000498
0.000964
0.000356
0.000838
0.000782
0.000734
0.000865
0.000831
0.000628
0.000539
0.000579
0.000504
0.000718
0.000509
0.000534
0.000591
0.000723
0.000896
0.000916
0.000611
0.000749
0.000585
0.000904
0.000622
0.000673
0.000542
0.000492
0.000569
0.000556
0.000829
0.000846
0.000550
0.000494
0.000515
0.000499
0.000873
0.000836
0.000924
0.000886
0.000829
0.000691
0.000724
0.000581
0.000840
0.000738
0.000903
0.000587
0.000915
0.000715
0.000788
0.000668
0.000631
0.000598
0.000499
0.000626
0.000534
0.000794
0.000807
0.000565
0.000462
0.000849
0.000777
0.000734
0.000491
0.000598
0.000733
0.000556
0.000647
0.000663
0.001033
0.000728
0.000795
0.000909
0.000890
0.000330
0.000171
0.000660
0.000617
0.000749
0.000663
0.001089
0.000632
0.000681
0.000731
0.001108
0.000843
0.000153
0.000427
0.000529
0.000509
0.000640
0.001028
0.000873
0.000978
0.000850
0.000910
0.000743
0.001101
0.001061
0.000957
0.000914
0.000593
0.001124
0.001103
0.000427
0.000871
0.000388
0.000844
0.001265
0.000699
0.000898
0.000737
0.001209
0.000512
0.000517
0.001092
0.000556
0.000654
0.001011
0.001218
0.000844
0.000820
0.000747
0.000810
0.000592
0.000826
0.000967
0.000826
0.000833
0.000720
0.000776
0.000797
0.000834
0.001051
0.001245
0.000642
0.000875
0.001035
0.001053
0.001055
0.001175
0.000713
0.000856
0.000969
0.001168
0.001048
0.001000
0.000919
0.001068
0.001008
0.001238
0.001105
0.000894
0.000467
0.000514
0.000406
0.000664
0.000476
0.000462
0.000805
0.000908
0.000767
0.000792
0.000847
0.000871
0.000417
0.000319
0.000826
0.000249
