# vtk DataFile Version 2.0
Unstructured Grid Example
ASCII
DATASET UNSTRUCTURED_GRID
POINTS 1108 float
1.013841 0.017939 -0.002944 
-1.013624 -0.017686 0.002768 
0.017865 0.981449 0.004888 
-0.017856 -0.981324 -0.004936 
-0.002925 0.004759 1.005453 
0.002988 -0.004948 -1.004797 
1.212993 0.011852 -0.001953 
-1.212981 -0.011973 0.001834 
0.011834 1.182465 0.003050 
-0.012082 -1.182304 -0.003219 
-0.001890 0.003171 1.205115 
0.001862 -0.003072 -1.204770 
1.000616 0.211724 -0.001818 
0.947874 0.398115 -0.000881 
0.857147 0.568838 0.000045 
0.732037 0.716993 0.001296 
0.578392 0.835609 0.002423 
0.403266 0.920695 0.003359 
0.213749 0.969897 0.004139 
-0.177503 0.956492 0.005294 
-0.365138 0.895401 0.005605 
-0.539584 0.801576 0.005588 
-0.694113 0.678796 0.005371 
-0.823137 0.530100 0.005043 
-0.922465 0.360394 0.004473 
-0.987019 0.175536 0.003707 
-1.000319 -0.211578 0.001717 
-0.947681 -0.398018 0.000963 
-0.856650 -0.568674 -0.000153 
-0.731583 -0.717040 -0.001371 
-0.578270 -0.835862 -0.002394 
-0.403343 -0.921037 -0.003312 
-0.213909 -0.969840 -0.004249 
0.177347 -0.956387 -0.005423 
0.365021 -0.895510 -0.005687 
0.539462 -0.801529 -0.005721 
0.693847 -0.678784 -0.005466 
0.823125 -0.530076 -0.005100 
0.922267 -0.360192 -0.004603 
0.986942 -0.175300 -0.003879 
-0.006487 -0.188077 0.984161 
-0.009610 -0.373093 0.924432 
-0.012489 -0.542804 0.829119 
-0.014750 -0.691377 0.702531 
-0.016510 -0.812959 0.549834 
-0.017572 -0.903877 0.376539 
-0.018301 -0.961124 0.189615 
-0.016925 -0.964778 -0.199618 
-0.015374 -0.911401 -0.387271 
-0.013100 -0.822948 -0.560566 
-0.010360 -0.701935 -0.712862 
-0.007442 -0.553465 -0.838052 
-0.004002 -0.383267 -0.930708 
-0.000398 -0.198113 -0.987068 
0.006268 0.188316 -0.983736 
0.009497 0.373173 -0.923867 
0.012407 0.542947 -0.829162 
0.014585 0.691557 -0.702704 
0.016316 0.813115 -0.549933 
0.017411 0.904029 -0.376641 
0.018133 0.961132 -0.189676 
0.016810 0.964752 0.199410 
0.015285 0.911308 0.386956 
0.013212 0.822517 0.560563 
0.010428 0.701730 0.712805 
0.007688 0.553374 0.837984 
0.004192 0.383058 0.930978 
0.000494 0.197812 0.987417 
0.992991 0.018384 0.193423 
0.933966 0.018340 0.382346 
0.839450 0.017308 0.556380 
0.712692 0.015941 0.708686 
0.558928 0.014020 0.833838 
0.384010 0.011095 0.927185 
0.194361 0.007803 0.985118 
-0.200018 0.000973 0.987412 
-0.390287 -0.002225 0.931519 
-0.565141 -0.006142 0.839426 
-0.718396 -0.009031 0.714869 
-0.844406 -0.012013 0.562651 
-0.937951 -0.014415 0.388456 
-0.995107 -0.016308 0.199286 
-0.992944 -0.018213 -0.193610 
-0.934030 -0.018306 -0.382533 
-0.839570 -0.017156 -0.556559 
-0.712823 -0.015859 -0.708770 
-0.559230 -0.013740 -0.833650 
-0.383914 -0.010739 -0.926795 
-0.194098 -0.007812 -0.984465 
0.200280 -0.001388 -0.987138 
0.390008 0.002263 -0.931225 
0.565100 0.005995 -0.839245 
0.718611 0.009100 -0.714920 
0.844713 0.012068 -0.562729 
0.938039 0.014688 -0.388573 
0.995107 0.016657 -0.199566 
1.204009 0.199810 -0.001431 
1.163967 0.383794 -0.000790 
1.093606 0.558651 -0.000168 
0.994402 0.718916 0.000427 
0.869917 0.860140 0.000737 
0.723993 0.978690 0.001501 
0.560491 1.071735 0.001957 
0.383977 1.137158 0.002377 
0.199552 1.174133 0.002868 
-0.174905 1.162017 0.003331 
-0.356596 1.114106 0.003754 
-0.528661 1.040260 0.003732 
-0.688983 0.943316 0.003957 
-0.833959 0.824065 0.003558 
-0.959235 0.683966 0.003308 
-1.062350 0.527028 0.003161 
-1.140847 0.356254 0.002819 
-1.191822 0.175126 0.002466 
-1.203670 -0.199625 0.001389 
-1.163715 -0.383422 0.000602 
-1.093335 -0.558544 0.000088 
-0.994056 -0.718507 -0.000452 
-0.870110 -0.859753 -0.000791 
-0.724182 -0.978634 -0.001611 
-0.560604 -1.071952 -0.001986 
-0.384017 -1.137345 -0.002468 
-0.199561 -1.174054 -0.002767 
0.174873 -1.162046 -0.003394 
0.356423 -1.114136 -0.003739 
0.528598 -1.040235 -0.003827 
0.688899 -0.943274 -0.003991 
0.833820 -0.823913 -0.003628 
0.959047 -0.683822 -0.003360 
1.062216 -0.526856 -0.003219 
1.140663 -0.356148 -0.002872 
1.191747 -0.175142 -0.002523 
-0.011474 -1.169699 -0.189839 
-0.010701 -1.128711 -0.372636 
-0.009703 -1.059914 -0.546906 
-0.008703 -0.964707 -0.708169 
-0.006963 -0.845125 -0.852644 
-0.005106 -0.704065 -0.976020 
-0.003529 -0.545248 -1.075318 
-0.001774 -0.372263 -1.147849 
-0.000181 -0.189644 -1.191458 
0.003990 0.183120 -1.187996 
0.005537 0.365308 -1.141719 
0.007073 0.536843 -1.067129 
0.008441 0.694995 -0.966383 
0.009517 0.835305 -0.842829 
0.010981 0.954965 -0.698539 
0.011345 1.050920 -0.538067 
0.011756 1.122115 -0.365269 
0.012025 1.166179 -0.183262 
0.011486 1.169742 0.189926 
0.010721 1.128627 0.372513 
0.009663 1.059266 0.547157 
0.008903 0.964247 0.708123 
0.007092 0.844907 0.852476 
0.004800 0.704033 0.976101 
0.003570 0.545237 1.075319 
0.001859 0.372304 1.148053 
0.000191 0.189807 1.191782 
-0.003829 -0.183720 1.188545 
-0.005530 -0.365137 1.142058 
-0.007219 -0.537010 1.067158 
-0.008506 -0.694963 0.966399 
-0.009500 -0.835199 0.842680 
-0.011068 -0.954840 0.698450 
-0.011427 -1.050749 0.537983 
-0.011844 -1.122021 0.365260 
-0.012089 -1.166152 0.183217 
-1.198908 -0.011156 0.191281 
-1.155044 -0.010415 0.375765 
-1.082268 -0.009066 0.551006 
-0.982850 -0.008001 0.712247 
-0.858924 -0.005995 0.856142 
-0.713815 -0.004246 0.979216 
-0.552151 -0.002604 1.077459 
-0.375775 -0.000695 1.148349 
-0.191060 0.001124 1.191328 
0.187172 0.005025 1.189399 
0.371386 0.006888 1.144828 
0.546601 0.008286 1.072173 
0.708358 0.009189 0.973433 
0.853088 0.010659 0.850750 
0.977122 0.011736 0.707203 
1.077691 0.011902 0.545941 
1.151425 0.012232 0.371446 
1.196869 0.012234 0.187133 
1.199079 0.011138 -0.191321 
1.155262 0.010374 -0.375897 
1.082664 0.009042 -0.551098 
0.983105 0.007859 -0.712361 
0.858972 0.006010 -0.856329 
0.713671 0.004423 -0.979207 
0.552044 0.002474 -1.077110 
0.376070 0.000580 -1.148050 
0.190774 -0.000712 -1.191095 
-0.187203 -0.004856 -1.188886 
-0.371340 -0.007236 -1.144165 
-0.546440 -0.008233 -1.071993 
-0.708026 -0.009616 -0.973510 
-0.853098 -0.010567 -0.850865 
-0.977205 -0.011594 -0.707298 
-1.077801 -0.011761 -0.546034 
-1.151502 -0.012113 -0.371510 
-1.196832 -0.012159 -0.187176 
0.819035 -0.378510 -0.419626 
0.405644 -0.773495 -0.446643 
0.394027 -0.370277 -0.844542 
0.896614 -0.280447 -0.341800 
0.281985 -0.873376 -0.338545 
0.684337 -0.322970 -0.655424 
0.550864 -0.612713 -0.544155 
0.865100 -0.457534 -0.113207 
0.173530 -0.612089 -0.769242 
0.618851 -0.162519 -0.778692 
0.882411 -0.141442 -0.466538 
0.194002 -0.836453 -0.484510 
0.963494 -0.121221 -0.271048 
0.807751 -0.277392 -0.523220 
0.674797 -0.621123 -0.347761 
0.448939 -0.835804 -0.205920 
0.615744 -0.730112 -0.179437 
0.524763 -0.465165 -0.708874 
0.805713 -0.129638 -0.593281 
0.545880 -0.729978 -0.352381 
0.995679 -0.104663 -0.117677 
0.762997 -0.591754 -0.156597 
0.136823 -0.929432 -0.281660 
0.940872 -0.286408 -0.163690 
0.734187 -0.451901 -0.491576 
0.252153 -0.926819 -0.156866 
0.552562 -0.291497 -0.785948 
0.325467 -0.690990 -0.629941 
0.831048 -0.447754 -0.294660 
0.503368 -0.174937 -0.855409 
0.137438 -0.747642 -0.639975 
0.191308 -0.475983 -0.861191 
0.176348 -0.316166 -0.938257 
0.346872 -0.546170 -0.758406 
0.636124 -0.466294 -0.605349 
0.107359 -0.963186 -0.129865 
0.442765 -0.588055 -0.665840 
0.332163 -0.212589 -0.926533 
0.208141 -0.132449 -0.976534 
0.521061 0.584370 -0.642033 
0.526369 0.785160 -0.359782 
0.830733 0.383348 -0.461265 
0.416214 0.467612 -0.790837 
0.370906 0.880241 -0.300303 
0.302503 0.310717 -0.908283 
0.177603 0.160037 -0.976603 
0.779206 0.225909 -0.618187 
0.694703 0.544544 -0.512615 
0.525237 0.848318 -0.169451 
0.615858 0.182072 -0.786382 
0.201696 0.865340 -0.438146 
0.181716 0.467607 -0.864580 
0.577960 0.686720 -0.473910 
0.170492 0.940254 -0.252061 
0.399977 0.140777 -0.916953 
0.133305 0.316226 -0.940853 
0.649550 0.708951 -0.337992 
0.129609 0.614440 -0.769832 
0.184651 0.743888 -0.630690 
0.317798 0.619301 -0.720637 
0.882347 0.499534 -0.173829 
0.627638 0.398767 -0.694341 
0.395822 0.762468 -0.519295 
0.785421 0.564217 -0.340545 
0.144082 0.971194 -0.106688 
0.309202 0.938816 -0.136811 
0.732869 0.699522 -0.148992 
0.965671 0.161901 -0.290888 
0.487641 0.307511 -0.832242 
0.878925 0.422786 -0.321323 
0.895498 0.183302 -0.456427 
0.962311 0.307893 -0.180830 
0.917907 0.297267 -0.346600 
1.001396 0.144871 -0.135629 
0.746085 0.392818 -0.577173 
0.473646 0.468292 0.766066 
0.472400 0.809120 0.388547 
0.852622 0.426910 0.376241 
0.339833 0.321341 0.896309 
0.322636 0.902522 0.300996 
0.927006 0.353705 0.257488 
0.980485 0.186034 0.210162 
0.569925 0.641101 0.550405 
0.116134 0.482113 0.877422 
0.764459 0.181670 0.640653 
0.448140 0.170731 0.887619 
0.449698 0.885098 0.187224 
0.889105 0.487776 0.169790 
0.264530 0.149085 0.960325 
0.272913 0.949656 0.146385 
0.960651 0.338612 0.123815 
0.621721 0.172955 0.777988 
0.525314 0.302311 0.811867 
0.331520 0.632461 0.716399 
0.800389 0.633314 0.116277 
0.692768 0.733064 0.173180 
0.605003 0.505501 0.645969 
0.206796 0.751923 0.634547 
0.782602 0.590861 0.302026 
0.651029 0.695001 0.371827 
0.406332 0.723724 0.581139 
0.574131 0.809290 0.226711 
0.128176 0.973021 0.128027 
0.112859 0.128831 0.991950 
0.481185 0.602351 0.662169 
0.161458 0.613238 0.782316 
0.722528 0.519706 0.504217 
0.656497 0.362856 0.687396 
0.162554 0.313504 0.944801 
0.183062 0.940116 0.273023 
0.801034 0.334592 0.536583 
0.852709 0.157133 0.526390 
0.232603 0.860886 0.458417 
0.903477 0.249684 0.401678 
0.265871 0.480884 0.848112 
0.494940 -0.757905 0.333466 
0.322156 -0.356543 0.864540 
0.309669 -0.845416 0.351041 
0.139546 -0.451151 0.869514 
0.512203 -0.143396 0.843307 
0.408632 -0.854499 0.180390 
0.595659 -0.521899 0.569436 
0.263149 -0.163153 0.949066 
0.209547 -0.930120 0.172393 
0.910263 -0.350925 0.158146 
0.763177 -0.377674 0.492131 
0.725501 -0.631619 0.134853 
0.870670 -0.168643 0.455934 
0.959741 -0.161151 0.231459 
0.501254 -0.304399 0.796253 
0.552140 -0.648743 0.461822 
0.595126 -0.744191 0.155640 
0.694875 -0.609347 0.296846 
[...]
POINT_DATA 1108
SCALARS u float 1
LOOKUP_TABLE default
0.022848
0.022496
0.026214
0.026306
0.007806
0.007511
0.017695
0.017754
0.021373
0.021668
0.006308
0.005971
0.025947
0.028542
0.028903
0.026850
0.023321
0.021096
0.021996
0.030455
0.033915
0.034357
0.031610
0.027269
0.022777
0.020856
0.025620
0.028330
0.028386
0.026451
0.023244
0.021115
0.022181
0.030652
0.033899
0.034477
0.031747
0.027305
0.023014
0.021086
0.010132
0.013588
0.018013
0.022044
0.025458
0.027324
0.027413
0.023731
0.020325
0.016407
0.012931
0.010156
0.007936
0.006984
0.009689
0.013440
0.017849
0.021769
0.025197
0.027087
0.027283
0.023628
0.020246
0.016722
0.013043
0.010313
0.008252
0.007185
0.022129
0.020933
0.019076
0.016965
0.014610
0.011653
0.008955
0.008315
0.011006
0.013879
0.016409
0.019021
0.020956
0.022106
0.021949
0.020932
0.018998
0.016940
0.014386
0.011195
0.008692
0.008320
0.010617
0.013683
0.016619
0.019295
0.021235
0.022419
0.022383
0.026156
0.028062
0.027212
0.024349
0.020299
0.016024
0.013987
0.016469
0.026721
0.030890
0.033347
0.032246
0.028694
0.024538
0.019300
0.014843
0.014430
0.021996
0.025749
0.027773
0.026710
0.024340
0.020459
0.016174
0.013987
0.016512
0.026719
0.030942
0.033410
0.032328
0.028903
0.024759
0.019515
0.014963
0.014392
0.019422
0.016598
0.013602
0.011005
0.008775
0.007398
0.007071
0.006967
0.006524
0.006691
0.007826
0.010839
0.014072
0.017260
0.020452
0.022546
0.023148
0.022963
0.019405
0.016661
0.014065
0.011410
0.008888
0.007255
0.007091
0.007190
0.006882
0.006456
0.007969
0.010808
0.014129
0.017381
0.020625
0.022752
0.023274
0.023027
0.018008
0.017964
0.017071
0.016013
0.014212
0.012661
0.011361
0.008670
0.007046
0.006555
0.007774
0.008986
0.010018
0.011805
0.013450
0.014661
0.015912
0.016899
0.018136
0.018144
0.017396
0.016184
0.014354
0.012620
0.011009
0.008596
0.006653
0.006103
0.007812
0.008847
0.010340
0.011748
0.013379
0.014618
0.015873
0.016817
0.018853
0.023430
0.009760
0.019057
0.025885
0.014449
0.019455
0.024270
0.011777
0.013041
0.018268
0.020733
0.020314
0.016856
0.024708
0.030980
0.030667
0.013529
0.016643
0.026435
0.021063
0.027245
0.025194
0.020917
0.018690
0.029804
0.011704
0.016995
0.021748
0.011208
0.015305
0.008746
0.007147
0.012453
0.015986
0.027607
0.015448
0.008466
0.007504
0.019377
0.021557
0.025294
0.016012
0.020988
0.012426
0.009519
0.021279
0.023385
0.022225
0.016817
0.022183
0.014673
0.021855
0.023735
0.012027
0.011863
0.024022
0.017985
0.020169
0.017021
0.028847
0.019912
0.019617
0.026508
0.023881
0.021500
0.026598
0.024443
0.015516
0.027208
0.023596
0.027491
0.026124
0.024950
0.023087
0.016666
0.020699
0.026001
0.012403
0.019443
0.026481
0.024658
0.021293
0.010604
0.019369
0.012934
0.021007
0.028413
0.009689
0.020494
0.027464
0.016245
0.015505
0.015413
0.027908
0.025807
0.020565
0.014848
0.026575
0.024349
0.018175
0.023123
0.022493
0.007998
0.018484
0.012500
0.023810
0.019586
0.009396
0.020052
0.022806
0.020826
0.017526
0.023462
0.012491
0.035636
0.018007
0.034537
0.017727
0.015167
0.035934
0.028382
0.012151
0.033224
0.023844
0.024781
0.031579
0.020501
0.021331
0.019153
0.032575
0.035160
0.031940
0.009334
0.012953
0.028856
0.031037
0.032834
0.027512
0.030143
0.019116
0.032570
0.024948
0.029311
0.026970
0.022678
0.028999
0.023359
0.022801
0.017108
0.014806
0.023259
0.029743
0.019494
0.021558
0.024644
0.016022
0.021026
0.012753
0.009751
0.021139
0.023281
0.022218
0.016942
0.022358
0.014690
0.021578
0.023803
0.012279
0.011849
0.023756
0.018108
0.020352
0.017254
0.028439
0.019910
0.019822
0.026584
0.024032
0.021533
0.026134
0.024068
0.015624
0.026886
0.023125
0.027021
0.025549
0.024678
0.022842
0.016518
0.020735
0.025967
0.011980
0.019182
0.026496
0.024521
0.021120
0.010317
0.019460
0.012535
0.020941
0.027887
0.009463
0.020608
0.027277
0.016339
0.015468
0.015460
0.027536
0.025327
0.020315
0.014933
0.026671
0.024202
0.018123
0.023057
0.022560
0.007654
0.018462
0.012376
0.023508
0.019504
0.009124
0.019911
0.022744
0.020902
0.017453
0.023742
0.012570
0.035349
0.017746
0.034191
0.017246
0.015047
0.035709
0.028083
0.011712
0.033027
0.023629
0.024574
0.031399
0.020352
0.021155
0.018941
0.032264
0.034996
0.031621
0.008908
0.012642
0.028515
0.030706
0.032554
0.027332
0.029764
0.018944
0.032208
0.024515
0.029050
0.026741
0.022449
0.028692
0.023135
0.022496
0.017061
0.014548
0.023048
0.029602
0.018779
0.023748
0.009926
0.018907
0.026252
0.014417
0.019575
0.024128
0.011964
0.013066
0.018030
0.021164
0.020094
0.016742
0.024622
0.030953
0.030191
0.013651
0.016510
0.026137
0.020774
0.027233
0.025136
0.020668
0.018648
0.029743
0.011778
0.017286
0.021702
0.011365
0.015541
0.008973
0.007283
0.012723
0.016034
0.027377
0.015710
0.008596
0.007623
0.029531
0.023111
0.014430
0.016904
0.033050
0.014473
0.031096
0.010425
0.014024
0.029557
0.006853
0.014684
0.024976
0.020080
0.013050
0.026523
0.009997
0.015437
0.033559
0.025528
0.023738
0.034797
0.013553
0.027678
0.012826
0.027248
0.017110
0.033219
0.014351
0.027431
0.018292
0.018919
0.023430
0.027169
0.022433
0.032853
0.020203
0.011992
0.022112
0.014066
0.017703
0.011270
0.019235
0.016048
0.029511
0.015481
0.031128
0.029567
0.031809
0.020926
0.034497
0.024493
0.030812
0.025644
0.014974
0.028706
0.019835
0.012287
0.028156
0.008831
0.008660
0.007808
0.021201
0.015833
0.010400
0.013962
0.025849
0.015202
0.024759
0.009143
0.015728
0.024105
0.007309
0.019180
0.012571
0.010824
0.016188
0.020390
0.013446
0.010184
0.025255
0.017835
0.017897
0.027056
0.018172
0.021721
0.008657
0.018584
0.014221
0.026981
0.019042
0.021344
0.013542
0.012285
0.017116
0.019246
0.014811
0.024416
0.013790
0.015866
0.017500
0.009909
0.015972
0.013190
0.015753
0.013015
0.022530
0.014151
0.024150
0.022144
0.025658
0.015252
0.027209
0.016060
0.022104
0.020842
0.019014
0.013213
0.021087
0.012222
0.022502
0.010821
0.007598
0.008810
0.018934
0.018789
0.013634
0.010852
0.022870
0.009418
0.023203
0.012916
0.007596
0.019478
0.015261
0.024540
0.011491
0.011544
0.027405
0.009334
0.018269
0.011119
0.020472
0.015497
0.011665
0.017177
0.026323
0.008757
0.012085
0.019893
0.009494
0.019117
0.023230
0.007633
0.016877
0.014782
0.021196
0.021742
0.017382
0.023758
0.013964
0.025811
0.008735
0.012916
0.020709
0.010222
0.022801
0.012168
0.025773
0.011531
0.025345
0.016765
0.013255
0.012189
0.020894
0.022216
0.017094
0.020251
0.006512
0.014758
0.024219
0.015977
0.014222
0.014560
0.014403
0.013656
0.009943
0.016926
0.024164
0.007066
0.012596
0.006690
0.013048
0.007613
0.015068
0.010098
0.023471
0.014626
0.026999
0.006947
0.020212
0.015192
0.030326
0.010708
0.008376
0.009993
0.012877
0.006474
0.014758
0.029515
0.013005
0.008451
0.014084
0.006764
0.013681
0.020960
0.020332
0.028106
0.014971
0.021994
0.017000
0.012720
0.013257
0.006844
0.007849
0.025339
0.018704
0.026195
0.011109
0.028863
0.007595
0.018279
0.005957
0.014613
0.009930
0.012519
0.007952
0.011845
0.009371
0.013280
0.015460
0.006819
0.017715
0.009736
0.025886
0.011961
0.023687
0.023238
0.022471
0.017445
0.011376
0.024648
0.013755
0.023156
0.012932
0.023070
0.014169
0.011891
0.017268
0.014512
0.011282
0.010925
0.017500
0.008743
0.011591
0.019710
0.025252
0.027001
0.018712
0.012861
0.019164
0.010022
0.020269
0.026138
0.014162
0.015214
0.019533
0.014463
0.008785
0.007475
0.016954
0.014312
0.017297
0.019565
0.015996
0.023837
0.009639
0.014306
0.013531
0.011192
0.013003
0.008910
0.020365
0.012898
0.022240
0.012848
0.023243
0.025414
0.026254
0.016310
0.018861
0.022054
0.017121
0.020065
0.020697
0.015540
0.008897
0.022855
0.007302
0.006032
0.009991
0.016813
0.022144
0.007084
0.012682
0.006691
0.013146
0.025024
0.007498
0.015154
0.024513
0.009923
0.023579
0.014361
0.006912
0.020369
0.014571
0.030614
0.010792
0.008402
0.009930
0.012973
0.006454
0.014951
0.019405
0.012926
0.008292
0.014193
0.006629
0.013737
0.021017
0.014651
0.021137
0.016739
0.012485
0.013294
0.006776
0.007873
0.025850
0.017958
0.026099
0.010979
0.028793
0.007443
0.018285
0.005952
0.014724
0.010003
0.012640
0.007902
0.011923
0.009264
0.013242
0.015463
0.006479
0.009474
0.017520
0.026906
0.012041
0.019581
0.029892
0.028419
0.029827
0.023409
0.013232
0.017101
0.033325
0.014639
0.031304
0.014103
0.029664
0.014664
0.025231
0.013132
0.020319
0.013184
0.026815
0.010172
0.015114
0.033803
0.025819
0.023942
0.034981
0.013637
0.027934
0.009403
0.027534
0.017316
0.033388
0.014382
0.027556
0.018503
0.011216
0.007435
0.018173
0.023630
0.027482
0.022455
0.033127
0.020440
0.012127
0.022340
0.013441
0.017369
0.011309
0.019460
0.016181
0.029798
0.015670
0.031441
0.029878
0.031978
0.021156
0.034738
0.024720
0.031077
0.025755
0.015000
0.019773
0.028949
0.008754
0.028388
0.007068
0.006304
0.012705
0.021054
0.024221
0.014263
0.009606
0.015208
0.009143
0.024697
0.019238
0.007177
0.022369
0.022462
0.017475
0.020483
0.017910
0.013859
0.026735
0.019742
0.011003
0.012921
0.016646
0.010039
0.014186
0.010659
0.022139
0.016730
0.017995
0.008245
0.015799
0.008186
0.024047
0.022719
0.020852
0.018866
0.019250
0.012624
0.014186
0.022524
0.015354
0.025168
0.022554
0.025427
0.017637
0.017510
0.015057
0.014515
0.011996
0.012876
0.012919
0.014402
0.009673
0.015671
0.014876
0.006862
0.019143
0.016965
0.018474
0.026542
0.016017
0.027118
0.020667
0.025323
0.007760
0.017388
0.024054
0.014390
0.018040
0.007174
0.009271
0.024608
0.010201
0.006563
0.018558
0.024247
0.018792
0.019059
0.022727
0.023746
0.017548
0.021427
0.014132
0.012055
0.032534
0.027086
0.026196
0.024181
0.024088
0.025821
0.023881
0.024714
0.024973
0.021256
0.009151
0.013619
0.019314
0.031065
0.036329
0.021493
0.025654
0.031325
0.025431
0.024041
0.019909
0.015435
0.014825
0.029071
0.021560
0.015589
0.023590
0.023869
0.009631
0.025029
0.024541
0.018093
0.022546
0.007163
0.010055
0.018006
0.013956
0.030137
0.025985
0.022619
0.025804
0.010837
0.010342
0.008073
0.018320
0.028417
0.008542
0.013151
0.023315
0.026193
0.025343
0.023569
0.008833
0.014998
0.021203
0.011476
0.009500
0.021161
0.022071
0.013135
0.017092
0.021344
0.024360
0.022559
0.026736
0.027921
0.034685
0.030099
0.031853
0.019364
0.027307
0.033294
0.023196
0.015080
0.018518
0.012753
0.008516
0.009759
0.027985
0.013594
0.023383
0.009227
