# vtk DataFile Version 2.0
Unstructured Grid Example
ASCII
DATASET UNSTRUCTURED_GRID
POINTS 1108 float
0.997781 -0.000850 0.020950 
-0.997780 0.000824 -0.020753 
-0.001088 0.987845 0.003200 
0.000940 -0.987571 -0.003325 
0.020616 0.003222 1.014520 
-0.020528 -0.003340 -1.014403 
1.197881 -0.000591 0.013883 
-1.197915 0.000376 -0.013894 
-0.000771 1.188227 0.002171 
0.000709 -1.188399 -0.002355 
0.013770 0.002174 1.213666 
-0.013842 -0.002255 -1.213740 
0.978283 0.192586 0.021070 
0.920914 0.378166 0.020513 
0.827901 0.548914 0.019011 
0.703180 0.698552 0.017086 
0.551784 0.821107 0.013875 
0.379654 0.912179 0.010729 
0.193039 0.968438 0.007167 
-0.195160 0.969554 -0.000543 
-0.381633 0.913809 -0.004667 
-0.554075 0.822983 -0.008879 
-0.705145 0.700591 -0.012542 
-0.829062 0.551007 -0.015282 
-0.921949 0.380132 -0.018066 
-0.978729 0.194209 -0.019710 
-0.978271 -0.192755 -0.020895 
-0.921187 -0.378329 -0.020342 
-0.828432 -0.549153 -0.018872 
-0.703680 -0.698693 -0.016937 
-0.552046 -0.821098 -0.014057 
-0.379781 -0.912156 -0.011017 
-0.193053 -0.968515 -0.007118 
0.194864 -0.969216 0.000555 
0.381581 -0.913386 0.004611 
0.553983 -0.822826 0.009100 
0.705182 -0.700559 0.012490 
0.829093 -0.550953 0.015301 
0.922029 -0.380174 0.018111 
0.978718 -0.194274 0.019764 
0.020325 -0.191079 0.993494 
0.019416 -0.377530 0.933900 
0.017522 -0.548618 0.838171 
0.015165 -0.698188 0.710525 
0.012333 -0.820362 0.556713 
0.008596 -0.911491 0.381712 
0.004788 -0.967773 0.192738 
-0.003105 -0.970203 -0.199200 
-0.007008 -0.916022 -0.388477 
-0.010761 -0.826624 -0.563693 
-0.013880 -0.705128 -0.717697 
-0.016452 -0.555816 -0.844442 
-0.018645 -0.384371 -0.938621 
-0.019872 -0.197736 -0.995972 
-0.020298 0.191133 -0.993447 
-0.019197 0.377552 -0.933521 
-0.017675 0.548570 -0.838121 
-0.015256 0.698230 -0.710698 
-0.012296 0.820462 -0.556824 
-0.008739 0.911516 -0.381839 
-0.004970 0.967788 -0.192805 
0.002933 0.970193 0.199138 
0.007087 0.915907 0.388754 
0.010767 0.826683 0.563625 
0.013993 0.705041 0.717600 
0.016601 0.555758 0.844564 
0.018708 0.384257 0.938385 
0.020006 0.197617 0.995819 
0.986743 -0.000203 0.217845 
0.937453 0.000510 0.408588 
0.851144 0.000990 0.584182 
0.729852 0.001507 0.737675 
0.579275 0.002273 0.861874 
0.405818 0.002648 0.951218 
0.216762 0.002920 1.002365 
-0.174735 0.003210 0.987063 
-0.361655 0.003518 0.921818 
-0.533986 0.003077 0.822303 
-0.685288 0.002872 0.693611 
-0.810971 0.002694 0.538793 
-0.907720 0.001878 0.364304 
-0.970730 0.001406 0.175617 
-0.986771 0.000160 -0.217684 
-0.937284 -0.000496 -0.408398 
-0.850772 -0.000930 -0.584096 
-0.729597 -0.001498 -0.737567 
-0.579100 -0.002099 -0.862191 
-0.405830 -0.002588 -0.951261 
-0.216711 -0.002977 -1.002339 
0.174910 -0.003401 -0.987065 
0.361744 -0.003516 -0.921888 
0.534205 -0.003200 -0.822415 
0.685446 -0.002933 -0.693596 
0.810951 -0.002662 -0.538830 
0.907700 -0.002022 -0.364190 
0.970929 -0.001504 -0.175574 
1.182844 0.186090 0.013929 
1.138349 0.368007 0.013864 
1.065482 0.540721 0.013196 
0.966782 0.699684 0.012605 
0.844327 0.840965 0.011501 
0.701098 0.961846 0.009544 
0.541059 1.058732 0.008108 
0.367954 1.129696 0.006185 
0.185966 1.173332 0.004539 
-0.187454 1.174087 -0.000189 
-0.369410 1.131353 -0.002669 
-0.542728 1.060388 -0.004223 
-0.702625 0.963807 -0.006012 
-0.846090 0.842857 -0.007926 
-0.968665 0.700976 -0.010170 
-1.066771 0.542108 -0.011259 
-1.139415 0.369093 -0.012310 
-1.183385 0.187045 -0.013215 
-1.182928 -0.186081 -0.013993 
-1.138615 -0.368110 -0.013833 
-1.065905 -0.540860 -0.013224 
-0.967197 -0.699942 -0.012508 
-0.844343 -0.841150 -0.011150 
-0.701116 -0.962021 -0.009499 
-0.541171 -1.058714 -0.008014 
-0.368021 -1.129756 -0.006219 
-0.185981 -1.173273 -0.004557 
0.187281 -1.174005 0.000144 
0.369260 -1.131007 0.002597 
0.542498 -1.060229 0.004288 
0.702485 -0.963678 0.006143 
0.845991 -0.842942 0.008019 
0.968631 -0.701032 0.010367 
1.066773 -0.542158 0.011322 
1.139436 -0.369153 0.012321 
1.183368 -0.187159 0.013277 
-0.001800 -1.174926 -0.190266 
-0.003661 -1.133204 -0.373711 
-0.005776 -1.063953 -0.548957 
-0.007313 -0.968365 -0.711561 
-0.009338 -0.848470 -0.856731 
-0.011150 -0.707250 -0.981503 
-0.011940 -0.547403 -1.082144 
-0.012772 -0.373598 -1.155611 
-0.013487 -0.190188 -1.199731 
-0.013622 0.185608 -1.197555 
-0.013259 0.368641 -1.151063 
-0.012589 0.541493 -1.076337 
-0.011611 0.700417 -0.974992 
-0.010221 0.841711 -0.850550 
-0.008254 0.962174 -0.704866 
-0.006738 1.058456 -0.543265 
-0.005225 1.128943 -0.369023 
-0.002783 1.172800 -0.185492 
0.001897 1.175107 0.190368 
0.003629 1.133050 0.373871 
0.005347 1.064251 0.548464 
0.007277 0.968441 0.711563 
0.009339 0.848384 0.856771 
0.011349 0.707231 0.981236 
0.012039 0.547360 1.082076 
0.012877 0.373578 1.155425 
0.013546 0.190257 1.199674 
0.013762 -0.185727 1.197528 
0.013260 -0.368526 1.151306 
0.012574 -0.541632 1.076379 
0.011656 -0.700505 0.974772 
0.010160 -0.841744 0.850385 
0.008206 -0.962106 0.704735 
0.006709 -1.058367 0.543181 
0.005186 -1.128920 0.368906 
0.002726 -1.172748 0.185266 
-1.176083 0.000907 0.174469 
-1.126512 0.000999 0.356599 
-1.050521 0.001522 0.529494 
-0.950830 0.001505 0.689555 
-0.829246 0.002139 0.834352 
-0.687016 0.002144 0.959551 
-0.528683 0.002186 1.061854 
-0.356638 0.002118 1.140466 
-0.174533 0.002261 1.191594 
0.203070 0.001950 1.205712 
0.388490 0.001929 1.166968 
0.565408 0.001689 1.098336 
0.728091 0.001354 1.000470 
0.871174 0.001125 0.876204 
0.992205 0.000929 0.730461 
1.087421 0.000394 0.566537 
1.153605 0.000016 0.388963 
1.190345 -0.000251 0.202803 
1.176143 -0.000976 -0.174252 
1.126395 -0.001278 -0.356669 
1.050413 -0.001547 -0.529491 
0.950970 -0.001625 -0.689626 
0.829204 -0.002086 -0.834450 
0.686976 -0.002013 -0.959615 
0.528733 -0.002154 -1.061973 
0.356830 -0.002197 -1.140422 
0.174529 -0.002206 -1.191711 
-0.202946 -0.001913 -1.205585 
-0.388284 -0.001885 -1.166971 
-0.565419 -0.001774 -1.098521 
-0.728003 -0.001682 -1.000092 
-0.871054 -0.001113 -0.876043 
-0.991966 -0.000884 -0.730271 
-1.087103 -0.000337 -0.566356 
-1.153466 0.000013 -0.388892 
-1.190349 0.000219 -0.202760 
0.803578 -0.392641 -0.400280 
0.406477 -0.785877 -0.439877 
0.375454 -0.376507 -0.836410 
0.879344 -0.295975 -0.320356 
0.289137 -0.885141 -0.333726 
0.662980 -0.333470 -0.638053 
0.543167 -0.624267 -0.533118 
0.864303 -0.476326 -0.092837 
0.165482 -0.617223 -0.769868 
0.591979 -0.171915 -0.761579 
0.856041 -0.156034 -0.443735 
0.196727 -0.844982 -0.482898 
0.941752 -0.138119 -0.247591 
0.785919 -0.290278 -0.502809 
0.671927 -0.636820 -0.332805 
0.458425 -0.852559 -0.196203 
0.622425 -0.749055 -0.164975 
0.509343 -0.473846 -0.697376 
0.776906 -0.142397 -0.571313 
0.547122 -0.745186 -0.341556 
0.979383 -0.122687 -0.094126 
0.765171 -0.610607 -0.138830 
0.147473 -0.938454 -0.279594 
0.930466 -0.304262 -0.141453 
0.720076 -0.464730 -0.474546 
0.265437 -0.940363 -0.151084 
0.530061 -0.299603 -0.771854 
0.320368 -0.699880 -0.625455 
0.822396 -0.463932 -0.275560 
0.477975 -0.182221 -0.841927 
0.134919 -0.753470 -0.640725 
0.177907 -0.479923 -0.861390 
0.158350 -0.319088 -0.939127 
0.335265 -0.553386 -0.752680 
0.621138 -0.476759 -0.591071 
0.122662 -0.972953 -0.126868 
0.432902 -0.597106 -0.657385 
0.309651 -0.217059 -0.920392 
0.185241 -0.135160 -0.975982 
0.483579 0.571442 -0.627510 
0.492130 0.770994 -0.347710 
0.790230 0.364282 -0.437821 
0.381149 0.459254 -0.779997 
0.341146 0.871968 -0.293311 
0.270811 0.306493 -0.902978 
0.150012 0.159134 -0.977839 
0.740595 0.210040 -0.594686 
0.654929 0.526724 -0.492860 
0.495090 0.834293 -0.158389 
0.580212 0.170468 -0.767267 
0.172448 0.864422 -0.437415 
0.150428 0.467193 -0.865263 
0.540603 0.670785 -0.458451 
0.144784 0.940488 -0.251577 
0.368925 0.134374 -0.906723 
0.104120 0.317009 -0.944439 
0.613015 0.690942 -0.321585 
0.098624 0.616169 -0.772906 
0.153401 0.743727 -0.630886 
0.284161 0.613897 -0.714915 
0.847154 0.478225 -0.152556 
0.588559 0.384386 -0.675069 
0.362069 0.753132 -0.510694 
0.746259 0.543692 -0.319901 
0.121812 0.972457 -0.106143 
0.283656 0.933452 -0.131909 
0.699510 0.679991 -0.132100 
0.933617 0.143146 -0.266352 
0.452456 0.297876 -0.817562 
0.840386 0.402182 -0.298540 
0.858080 0.165526 -0.431498 
0.929722 0.287572 -0.157603 
0.880655 0.277593 -0.322324 
0.975078 0.125713 -0.111801 
0.705585 0.375546 -0.554857 
0.480693 0.463159 0.785239 
0.460369 0.801050 0.399435 
0.843388 0.411782 0.396732 
0.354153 0.317510 0.914852 
0.308225 0.898195 0.307851 
0.913417 0.336514 0.278876 
0.969511 0.167782 0.233650 
0.565205 0.632805 0.566013 
0.126518 0.482722 0.887502 
0.773653 0.168634 0.666597 
0.465791 0.163526 0.911021 
0.430713 0.876124 0.195834 
0.868336 0.469480 0.189317 
0.283737 0.144886 0.979164 
0.254683 0.946265 0.151249 
0.940841 0.319767 0.145432 
0.636548 0.162599 0.804544 
0.537995 0.295351 0.834641 
0.334184 0.630262 0.729641 
0.775774 0.615425 0.133246 
0.670742 0.717670 0.187733 
0.606279 0.497064 0.665164 
0.206250 0.752113 0.643592 
0.766951 0.575587 0.319445 
0.637842 0.682846 0.386739 
0.402534 0.719099 0.593380 
0.555077 0.797235 0.238184 
0.111013 0.975120 0.129169 
0.133313 0.126625 1.005208 
0.481943 0.596578 0.678308 
0.166907 0.613805 0.792211 
0.717723 0.507859 0.523202 
0.662881 0.353081 0.710228 
0.177992 0.312364 0.958300 
0.169393 0.940061 0.276773 
0.801918 0.321578 0.559131 
0.858791 0.142064 0.552051 
0.224853 0.859946 0.465019 
0.900275 0.233865 0.425259 
0.275559 0.479695 0.862501 
0.519243 -0.781711 0.353586 
0.350113 -0.370220 0.888379 
0.334596 -0.864994 0.366224 
0.168379 -0.461120 0.885951 
0.536501 -0.156890 0.871587 
0.429698 -0.875695 0.195225 
0.622764 -0.544975 0.597324 
0.288416 -0.172049 0.970273 
0.231092 -0.945802 0.181709 
0.917152 -0.372096 0.182366 
0.785030 -0.400009 0.521148 
0.740385 -0.655138 0.155962 
0.884677 -0.188218 0.484112 
0.962504 -0.181026 0.257092 
0.528338 -0.321019 0.824832 
0.577959 -0.672881 0.486092 
0.613674 -0.768088 0.174701 
0.715729 -0.633634 0.320721 
[...]
POINT_DATA 1108
SCALARS u float 1
LOOKUP_TABLE default
0.021085
0.020888
0.012616
0.012901
0.025421
0.025298
0.014056
0.014055
0.011996
0.011858
0.019521
0.019633
0.021365
0.021213
0.020456
0.019507
0.017727
0.016162
0.014424
0.011244
0.011149
0.012373
0.014269
0.016129
0.018348
0.019837
0.021175
0.020976
0.020163
0.019219
0.017821
0.016347
0.014331
0.011585
0.011514
0.012651
0.014233
0.016159
0.018377
0.019888
0.024305
0.022448
0.020007
0.017923
0.016637
0.015110
0.014064
0.011769
0.012017
0.014327
0.017570
0.020952
0.023828
0.025150
0.024249
0.022086
0.020141
0.018012
0.016551
0.015164
0.014101
0.011712
0.012274
0.014273
0.017612
0.021145
0.023725
0.025153
0.023523
0.029250
0.034737
0.038132
0.038620
0.035912
0.030722
0.021542
0.021420
0.023651
0.025816
0.026626
0.024545
0.021961
0.023374
0.029003
0.034456
0.037893
0.038754
0.035947
0.030674
0.021407
0.021326
0.023424
0.025697
0.026615
0.024655
0.021916
0.014225
0.014444
0.014302
0.014395
0.014391
0.013771
0.013762
0.013431
0.012851
0.011144
0.010365
0.009993
0.009628
0.010047
0.011276
0.011827
0.012567
0.013360
0.014275
0.014343
0.014186
0.014097
0.014010
0.013621
0.013691
0.013380
0.012910
0.011230
0.010699
0.010211
0.009844
0.010097
0.011439
0.011876
0.012567
0.013418
0.010761
0.009316
0.008851
0.009909
0.012429
0.015559
0.017797
0.019405
0.019960
0.018494
0.016628
0.014838
0.013285
0.012451
0.011964
0.012780
0.013507
0.012927
0.010630
0.009487
0.008166
0.009865
0.012458
0.015520
0.017808
0.019335
0.019967
0.018566
0.016789
0.014815
0.013224
0.012357
0.011985
0.012850
0.013529
0.013006
0.016126
0.020518
0.024196
0.025517
0.024028
0.021621
0.017839
0.014362
0.014819
0.025672
0.031248
0.035728
0.037396
0.035778
0.033002
0.028370
0.021940
0.015929
0.016275
0.020569
0.024283
0.025371
0.023999
0.021609
0.017742
0.014187
0.014865
0.025493
0.031132
0.035889
0.037056
0.035577
0.032701
0.028027
0.021803
0.015888
0.021493
0.013597
0.018814
0.021556
0.011925
0.022454
0.017281
0.017331
0.016653
0.023141
0.024427
0.012677
0.022130
0.023466
0.017452
0.012737
0.014599
0.018862
0.025465
0.015060
0.020486
0.016257
0.011522
0.019521
0.021037
0.011300
0.021237
0.014675
0.019364
0.021290
0.014637
0.018519
0.020313
0.016542
0.020314
0.011580
0.016543
0.019870
0.020941
0.024535
0.022184
0.026702
0.022902
0.019556
0.021418
0.021637
0.027259
0.025913
0.019643
0.025328
0.018344
0.020306
0.024482
0.016536
0.022103
0.021355
0.023353
0.019276
0.019049
0.021425
0.022569
0.026338
0.021968
0.024910
0.014813
0.016813
0.021290
0.023864
0.024004
0.024799
0.026568
0.022587
0.025170
0.021753
0.027023
0.033026
0.018598
0.027210
0.033557
0.014432
0.024682
0.024413
0.026124
0.025074
0.036424
0.037058
0.015565
0.021960
0.033030
0.013809
0.022229
0.038872
0.036828
0.025874
0.019923
0.019020
0.031477
0.019919
0.022819
0.022131
0.022792
0.017398
0.012374
0.028594
0.028369
0.023107
0.028762
0.035367
0.028954
0.012708
0.032770
0.033880
0.015511
0.029434
0.029022
0.015319
0.029454
0.013454
0.023701
0.036508
0.012150
0.026126
0.031356
0.012050
0.020159
0.028552
0.015828
0.030509
0.023880
0.033278
0.019985
0.014035
0.018993
0.027736
0.026565
0.016573
0.014056
0.017176
0.017995
0.022376
0.035289
0.014721
0.027345
0.023853
0.022023
0.032173
0.020428
0.020040
0.024408
0.036920
0.034010
0.025112
0.012394
0.024704
0.022330
0.026392
0.023205
0.019786
0.021390
0.021536
0.027115
0.026064
0.019853
0.025660
0.018352
0.020434
0.024107
0.016378
0.022194
0.021349
0.023334
0.019171
0.019028
0.021453
0.022141
0.026465
0.022015
0.024750
0.014806
0.016915
0.021108
0.023665
0.024000
0.024846
0.026452
0.022286
0.024997
0.021681
0.027195
0.032415
0.018390
0.026725
0.033594
0.014563
0.024501
0.024283
0.026196
0.024968
0.036389
0.037015
0.015646
0.021759
0.032901
0.013736
0.022036
0.038461
0.036747
0.025507
0.019619
0.019090
0.031336
0.019410
0.022705
0.022095
0.022704
0.017481
0.012507
0.028615
0.027746
0.023063
0.028582
0.035051
0.029047
0.012934
0.032467
0.033527
0.015609
0.029394
0.029008
0.015198
0.029385
0.013409
0.023738
0.036720
0.012000
0.026042
0.031351
0.011888
0.020126
0.028367
0.015791
0.030351
0.023735
0.033126
0.020043
0.013793
0.018877
0.027560
0.026405
0.016476
0.014089
0.017203
0.018016
0.022328
0.035181
0.014743
0.027280
0.023669
0.021752
0.032023
0.020232
0.019996
0.024261
0.036841
0.034084
0.024881
0.012237
0.021502
0.013593
0.018952
0.021654
0.011983
0.022461
0.017263
0.017362
0.016680
0.023253
0.024473
0.012284
0.021993
0.023457
0.017393
0.012553
0.014204
0.018897
0.025493
0.014955
0.020399
0.016190
0.011526
0.019561
0.021026
0.011126
0.021349
0.014869
0.019330
0.021442
0.014725
0.018625
0.020395
0.016698
0.020296
0.011437
0.016699
0.019952
0.020995
0.015634
0.023784
0.025086
0.017848
0.009248
0.017634
0.009866
0.026623
0.014186
0.011065
0.024032
0.032399
0.013112
0.017504
0.029805
0.010625
0.035459
0.016596
0.010638
0.016017
0.012285
0.008848
0.023156
0.011488
0.020918
0.020237
0.013951
0.009817
0.017442
0.011760
0.026502
0.028596
0.019289
0.018755
0.024587
0.010479
0.022060
0.034238
0.011392
0.032589
0.021248
0.036099
0.013211
0.028009
0.010793
0.023256
0.009605
0.011821
0.009131
0.015452
0.008952
0.021623
0.014985
0.011909
0.014372
0.014141
0.027382
0.030866
0.010058
0.032588
0.020014
0.029200
0.023113
0.023357
0.017170
0.017819
0.021370
0.016479
0.019754
0.014691
0.014565
0.015937
0.014695
0.025970
0.017329
0.015983
0.015656
0.025990
0.020920
0.013807
0.022223
0.020795
0.017120
0.017696
0.015575
0.022719
0.014243
0.024208
0.016176
0.017257
0.014573
0.018180
0.020756
0.019789
0.024201
0.025410
0.022588
0.024461
0.020490
0.014045
0.025571
0.016770
0.023216
0.014010
0.024291
0.018788
0.026233
0.018436
0.024226
0.019836
0.017280
0.018906
0.020819
0.022610
0.025234
0.015143
0.013093
0.021000
0.026362
0.018996
0.016686
0.016530
0.014718
0.014043
0.031419
0.020293
0.010764
0.031383
0.022239
0.028819
0.018899
0.009963
0.028065
0.018016
0.010917
0.014435
0.019761
0.014617
0.014345
0.021665
0.011849
0.010809
0.029959
0.035185
0.036934
0.031117
0.015113
0.023897
0.009659
0.026260
0.033204
0.024148
0.015111
0.024304
0.014420
0.019181
0.017024
0.021891
0.024088
0.023726
0.031287
0.013038
0.016938
0.012633
0.012827
0.013717
0.012484
0.025544
0.017645
0.027987
0.018675
0.034434
0.036865
0.034511
0.027219
0.025692
0.029728
0.014804
0.023506
0.025594
0.020280
0.010970
0.035099
0.011566
0.009060
0.011663
0.019800
0.014963
0.011233
0.013576
0.019439
0.013336
0.017428
0.014212
0.017137
0.010973
0.014747
0.010594
0.013299
0.012652
0.014063
0.008878
0.011611
0.022293
0.017975
0.018922
0.023899
0.014606
0.014174
0.011175
0.017294
0.014512
0.021167
0.016051
0.014487
0.012660
0.009664
0.010646
0.012718
0.014965
0.017354
0.014743
0.019895
0.014284
0.011744
0.011923
0.010520
0.012496
0.009732
0.011801
0.011886
0.016764
0.012442
0.017481
0.021725
0.023978
0.015982
0.021879
0.016176
0.019646
0.014451
0.016613
0.017389
0.013265
0.010649
0.022251
0.010507
0.010803
0.017830
0.027872
0.030743
0.019496
0.009917
0.018835
0.010206
0.014978
0.011767
0.017368
0.034345
0.035944
0.022175
0.011565
0.030476
0.021155
0.036837
0.013128
0.017277
0.014339
0.011758
0.009344
0.023826
0.034195
0.023484
0.015288
0.011154
0.010404
0.017936
0.030367
0.025605
0.029651
0.032821
0.024304
0.023005
0.028217
0.013344
0.023771
0.013176
0.034833
0.034395
0.026083
0.036943
0.016853
0.029625
0.014240
0.024693
0.010175
0.013070
0.012936
0.017457
0.010968
0.018679
0.023824
0.011654
0.014766
0.029692
0.018492
0.029969
0.012402
0.025961
0.023236
0.019760
0.014886
0.011164
0.013449
0.019407
0.013282
0.017436
0.010919
0.014174
0.017216
0.011034
0.010806
0.014764
0.010237
0.012654
0.014165
0.008809
0.011703
0.022285
0.017847
0.018773
0.023869
0.014581
0.014173
0.009713
0.017278
0.014383
0.021227
0.016044
0.014499
0.013065
0.012352
0.015268
0.017423
0.014554
0.019888
0.014109
0.011788
0.012203
0.010308
0.013905
0.009635
0.011993
0.011730
0.016774
0.012330
0.017544
0.021640
0.023895
0.015807
0.021853
0.016069
0.019658
0.014506
0.016606
0.013021
0.017478
0.012231
0.022165
0.009709
0.011021
0.010857
0.015603
0.023783
0.027104
0.017958
0.009302
0.017724
0.009986
0.014239
0.011228
0.032581
0.013123
0.033729
0.017463
0.029982
0.010618
0.035159
0.016575
0.010731
0.016135
0.012335
0.008957
0.023361
0.011507
0.032158
0.020211
0.013976
0.009944
0.017524
0.011863
0.026163
0.021343
0.028789
0.029545
0.019484
0.018758
0.024832
0.010451
0.022264
0.034401
0.011356
0.031259
0.021261
0.036142
0.013135
0.028203
0.010770
0.023479
0.009575
0.011944
0.009271
0.015506
0.009024
0.021781
0.014915
0.012018
0.014450
0.027759
0.014179
0.027446
0.010135
0.023851
0.022266
0.020879
0.024629
0.023662
0.017873
0.015347
0.016467
0.014346
0.020438
0.014499
0.015194
0.016833
0.020567
0.025509
0.026065
0.017396
0.021319
0.016644
0.025718
0.017688
0.019158
0.015434
0.014005
0.016182
0.015818
0.023579
0.024090
0.015643
0.014063
0.014649
0.014193
0.024842
0.023795
0.026296
0.025227
0.023605
0.019671
0.020595
0.016528
0.023909
0.021001
0.025711
0.016696
0.026044
0.020338
0.022427
0.019008
0.017965
0.017011
0.014205
0.017816
0.015187
0.022584
0.022952
0.016077
0.013157
0.024169
0.022120
0.020896
0.013971
0.017025
0.020864
0.015816
0.018400
0.018857
0.029393
0.020728
0.022635
0.025881
0.025316
0.009385
0.004872
0.018786
0.017553
0.021307
0.018880
0.030993
0.017988
0.019369
0.020810
0.031533
0.024001
0.004347
0.012154
0.015056
0.014473
0.018214
0.029248
0.024855
0.027844
0.024186
0.025890
0.021134
0.031344
0.030183
0.027239
0.025997
0.016883
0.031981
0.031381
0.012155
0.024795
0.011044
0.024019
0.036004
0.019879
0.025554
0.020973
0.034402
0.014566
0.014701
0.031073
0.015835
0.018598
0.028771
0.034660
0.024013
0.023331
0.021258
0.023060
0.016841
0.023493
0.027518
0.023507
0.023719
0.020499
0.022075
0.022688
0.023721
0.029909
0.035419
0.018273
0.024898
0.029457
0.029969
0.030027
0.033449
0.020282
0.024366
0.027578
0.033235
0.029828
0.028446
0.026163
0.030381
0.028678
0.035225
0.031437
0.025429
0.013293
0.014633
0.011541
0.018909
0.013540
0.013161
0.022918
0.025840
0.021836
0.022548
0.024105
0.024796
0.011854
0.009088
0.023518
0.007084
