# vtk DataFile Version 2.0
Unstructured Grid Example
ASCII
DATASET UNSTRUCTURED_GRID
POINTS 1108 float
0.997400 -0.000995 0.024545 
-0.997399 0.000966 -0.024313 
-0.001275 0.985760 0.003749 
0.001101 -0.985438 -0.003896 
0.024153 0.003775 1.017011 
-0.024050 -0.003913 -1.016874 
1.197517 -0.000692 0.016265 
-1.197557 0.000441 -0.016278 
-0.000903 1.186207 0.002543 
0.000831 -1.186409 -0.002759 
0.016132 0.002547 1.216010 
-0.016217 -0.002642 -1.216097 
0.977854 0.192156 0.024685 
0.920406 0.377391 0.024032 
0.827289 0.547773 0.022272 
0.702506 0.697084 0.020017 
0.551135 0.819330 0.016256 
0.379134 0.910172 0.012570 
0.192687 0.966319 0.008397 
-0.195172 0.967628 -0.000636 
-0.381453 0.912081 -0.005467 
-0.553818 0.821527 -0.010403 
-0.704808 0.699473 -0.014694 
-0.828648 0.550224 -0.017903 
-0.921618 0.379695 -0.021166 
-0.978377 0.194057 -0.023092 
-0.977840 -0.192355 -0.024480 
-0.920725 -0.377582 -0.023832 
-0.827911 -0.548052 -0.022110 
-0.703092 -0.697250 -0.019843 
-0.551441 -0.819319 -0.016468 
-0.379283 -0.910145 -0.012907 
-0.192704 -0.966409 -0.008339 
0.194825 -0.967231 0.000650 
0.381392 -0.911586 0.005402 
0.553711 -0.821344 0.010662 
0.704852 -0.699436 0.014633 
0.828685 -0.550161 0.017927 
0.921712 -0.379744 0.021218 
0.978364 -0.194134 0.023155 
0.023813 -0.190391 0.995674 
0.022747 -0.376646 0.935619 
0.020528 -0.547425 0.839321 
0.017767 -0.696658 0.711112 
0.014449 -0.818456 0.556910 
0.010071 -0.909366 0.381545 
0.005610 -0.965540 0.192334 
-0.003638 -0.968388 -0.199905 
-0.008210 -0.914674 -0.389471 
-0.012607 -0.825792 -0.565087 
-0.016261 -0.704788 -0.719514 
-0.019274 -0.555858 -0.846667 
-0.021843 -0.384660 -0.941150 
-0.023281 -0.198190 -0.998577 
-0.023781 0.190454 -0.995620 
-0.022490 0.376672 -0.935175 
-0.020707 0.547369 -0.839262 
-0.017873 0.696707 -0.711315 
-0.014406 0.818573 -0.557039 
-0.010239 0.909395 -0.381694 
-0.005822 0.965558 -0.192413 
0.003436 0.968376 0.199832 
0.008303 0.914539 0.389795 
0.012615 0.825861 0.565007 
0.016393 0.704686 0.719401 
0.019450 0.555790 0.846810 
0.021918 0.384527 0.940874 
0.023439 0.198051 0.998398 
0.987766 -0.000238 0.221749 
0.939782 0.000598 0.413032 
0.854520 0.001160 0.589090 
0.733754 0.001765 0.742920 
0.583342 0.002663 0.867090 
0.409788 0.003102 0.955908 
0.220480 0.003421 1.006067 
-0.171243 0.003761 0.988140 
-0.358047 0.004121 0.921464 
-0.530283 0.003605 0.820730 
-0.681544 0.003365 0.691296 
-0.807454 0.003156 0.535915 
-0.904948 0.002200 0.361151 
-0.969005 0.001647 0.172276 
-0.987798 0.000188 -0.221561 
-0.939584 -0.000581 -0.412810 
-0.854083 -0.001089 -0.588990 
-0.733456 -0.001755 -0.742793 
-0.583137 -0.002459 -0.867462 
-0.409801 -0.003032 -0.955959 
-0.220420 -0.003488 -1.006037 
0.171447 -0.003984 -0.988142 
0.358151 -0.004119 -0.921546 
0.530539 -0.003749 -0.820862 
0.681729 -0.003436 -0.691278 
0.807431 -0.003119 -0.535958 
0.904925 -0.002369 -0.361017 
0.969238 -0.001762 -0.172225 
1.182436 0.185811 0.016319 
1.137849 0.367524 0.016242 
1.064843 0.540023 0.015460 
0.966089 0.698714 0.014767 
0.843606 0.839668 0.013474 
0.700370 0.960306 0.011182 
0.540419 1.056935 0.009499 
0.367462 1.127710 0.007246 
0.185665 1.171292 0.005317 
-0.187408 1.172176 -0.000221 
-0.369168 1.129652 -0.003127 
-0.542374 1.058875 -0.004947 
-0.702158 0.962604 -0.007043 
-0.845672 0.841884 -0.009286 
-0.968295 0.700227 -0.011915 
-1.066353 0.541648 -0.013190 
-1.139098 0.368797 -0.014421 
-1.183069 0.186930 -0.015482 
-1.182534 -0.185800 -0.016393 
-1.138160 -0.367645 -0.016206 
-1.065339 -0.540186 -0.015493 
-0.966575 -0.699015 -0.014653 
-0.843625 -0.839885 -0.013063 
-0.700391 -0.960511 -0.011129 
-0.540550 -1.056913 -0.009389 
-0.367541 -1.127781 -0.007286 
-0.185682 -1.171223 -0.005339 
0.187206 -1.172080 0.000169 
0.368992 -1.129247 0.003042 
0.542105 -1.058688 0.005024 
0.701995 -0.962453 0.007197 
0.845555 -0.841984 0.009395 
0.968255 -0.700293 0.012146 
1.066356 -0.541707 0.013264 
1.139121 -0.368867 0.014435 
1.183050 -0.187063 0.015554 
-0.002109 -1.173159 -0.190702 
-0.004289 -1.131821 -0.374207 
-0.006767 -1.063052 -0.549672 
-0.008568 -0.967943 -0.712628 
-0.010940 -0.848460 -0.858138 
-0.013063 -0.707577 -0.983335 
-0.013988 -0.547852 -1.084364 
-0.014963 -0.374075 -1.158072 
-0.015801 -0.190612 -1.202220 
-0.015958 0.185246 -1.199670 
-0.015533 0.368267 -1.152744 
-0.014749 0.540928 -1.077560 
-0.013604 0.699572 -0.975707 
-0.011975 0.840542 -0.850897 
-0.009671 0.960690 -0.704785 
-0.007894 1.056611 -0.543004 
-0.006122 1.126828 -0.368715 
-0.003260 1.170668 -0.185110 
0.002223 1.173370 0.190822 
0.004252 1.131640 0.374394 
0.006265 1.063400 0.549095 
0.008525 0.968032 0.712630 
0.010941 0.848360 0.858186 
0.013296 0.707555 0.983023 
0.014104 0.547801 1.084284 
0.015086 0.374052 1.157853 
0.015870 0.190692 1.202153 
0.016123 -0.185385 1.199638 
0.015535 -0.368132 1.153028 
0.014731 -0.541090 1.077609 
0.013656 -0.699675 0.975449 
0.011903 -0.840580 0.850704 
0.009614 -0.960611 0.704630 
0.007860 -1.056507 0.542905 
0.006076 -1.126801 0.368578 
0.003194 -1.170607 0.184844 
-1.174514 0.001062 0.172195 
-1.123980 0.001171 0.354159 
-1.047315 0.001783 0.526870 
-0.947400 0.001763 0.686847 
-0.825938 0.002506 0.831920 
-0.683872 0.002512 0.957618 
-0.525920 0.002561 1.060593 
-0.354205 0.002481 1.140328 
-0.172270 0.002649 1.192687 
0.205703 0.002285 1.209227 
0.391521 0.002259 1.171377 
0.568946 0.001979 1.103333 
0.731994 0.001586 1.005556 
0.875059 0.001318 0.880952 
0.995874 0.001088 0.734770 
1.090546 0.000462 0.570268 
1.155722 0.000019 0.392076 
1.191223 -0.000294 0.205391 
1.174585 -0.001143 -0.171941 
1.123844 -0.001497 -0.354241 
1.047189 -0.001812 -0.526867 
0.947564 -0.001904 -0.686929 
0.825889 -0.002443 -0.832035 
0.683825 -0.002359 -0.957693 
0.525978 -0.002523 -1.060732 
0.354430 -0.002573 -1.140276 
0.172265 -0.002584 -1.192823 
-0.205558 -0.002241 -1.209077 
-0.391281 -0.002209 -1.171380 
-0.568958 -0.002079 -1.103550 
-0.731890 -0.001971 -1.005114 
-0.874918 -0.001304 -0.880764 
-0.995594 -0.001035 -0.734548 
-1.090173 -0.000395 -0.570056 
-1.155559 0.000016 -0.391992 
-1.191227 0.000257 -0.205340 
0.800960 -0.391936 -0.397780 
0.404619 -0.784573 -0.439343 
0.372241 -0.376343 -0.836148 
0.877002 -0.295544 -0.317526 
0.287869 -0.883545 -0.333555 
0.659689 -0.333045 -0.636098 
0.540644 -0.623225 -0.531962 
0.863313 -0.475553 -0.090142 
0.162851 -0.616818 -0.770906 
0.588373 -0.171988 -0.759920 
0.853003 -0.155976 -0.440849 
0.194989 -0.843739 -0.483303 
0.939657 -0.138063 -0.244426 
0.782827 -0.289841 -0.500268 
0.669913 -0.635619 -0.330943 
0.457411 -0.850877 -0.195246 
0.621262 -0.747641 -0.163266 
0.506324 -0.473258 -0.696370 
0.773391 -0.142410 -0.568718 
0.545311 -0.743791 -0.340354 
0.978263 -0.122657 -0.090794 
0.763980 -0.609506 -0.136561 
0.146553 -0.936737 -0.279934 
0.929101 -0.303848 -0.138423 
0.717287 -0.463849 -0.472431 
0.264840 -0.938531 -0.150870 
0.526646 -0.299417 -0.770596 
0.318006 -0.699009 -0.625427 
0.820339 -0.463109 -0.273084 
0.474463 -0.182355 -0.840933 
0.132711 -0.752704 -0.641643 
0.174933 -0.479802 -0.862501 
0.155132 -0.319272 -0.940453 
0.332473 -0.552880 -0.752636 
0.618150 -0.475976 -0.589457 
0.122330 -0.971013 -0.127136 
0.430246 -0.596331 -0.656756 
0.306255 -0.217276 -0.920599 
0.181838 -0.135564 -0.977060 
0.480416 0.569429 -0.625598 
0.489953 0.768634 -0.345665 
0.787089 0.362823 -0.434822 
0.377799 0.457612 -0.778763 
0.339472 0.869525 -0.291733 
0.267326 0.305340 -0.902810 
0.146536 0.158362 -0.978890 
0.736986 0.208937 -0.591923 
0.651870 0.524800 -0.490271 
0.493718 0.832083 -0.156247 
0.576475 0.169461 -0.765291 
0.170484 0.862080 -0.436666 
0.147226 0.465851 -0.865552 
0.537896 0.668486 -0.456209 
0.143539 0.938081 -0.250739 
0.365281 0.133504 -0.906140 
0.100752 0.316016 -0.945485 
0.610745 0.688809 -0.319065 
0.095731 0.614581 -0.773114 
0.150848 0.741730 -0.630468 
0.281138 0.611990 -0.714056 
0.845489 0.476845 -0.149344 
0.584991 0.382757 -0.672825 
0.359558 0.750778 -0.509158 
0.743707 0.541880 -0.316991 
0.121137 0.970166 -0.105274 
0.282645 0.931155 -0.130486 
0.698084 0.678173 -0.129271 
0.931329 0.142478 -0.263023 
0.448839 0.296553 -0.816104 
0.837853 0.400774 -0.295425 
0.854885 0.164637 -0.428371 
0.928028 0.286669 -0.154236 
0.878007 0.276498 -0.319093 
0.973738 0.125225 -0.108353 
0.702174 0.373978 -0.552137 
0.484039 0.463709 0.789778 
0.461654 0.800345 0.402269 
0.845387 0.411748 0.400951 
0.357810 0.318114 0.919258 
0.308941 0.896947 0.309866 
0.914713 0.336277 0.282901 
0.970625 0.167637 0.237685 
0.567536 0.632850 0.569841 
0.129582 0.483027 0.890506 
0.777231 0.168967 0.671709 
0.469756 0.164076 0.915960 
0.430979 0.874682 0.198066 
0.868908 0.468901 0.192995 
0.287497 0.145431 0.983368 
0.254780 0.944480 0.152805 
0.941235 0.319330 0.149200 
0.640527 0.163083 0.809874 
0.541800 0.295948 0.839650 
0.336907 0.630477 0.733141 
0.775837 0.614458 0.136524 
0.671041 0.716649 0.190818 
0.609276 0.497441 0.669641 
0.208469 0.751891 0.646182 
0.768191 0.575177 0.323136 
0.639297 0.682426 0.390220 
0.404696 0.718990 0.596636 
0.555574 0.796149 0.240920 
0.111107 0.973226 0.130122 
0.136901 0.127150 1.008512 
0.484706 0.596859 0.682305 
0.169635 0.613931 0.795085 
0.720209 0.507999 0.527462 
0.666345 0.353547 0.715187 
0.181447 0.312846 0.961837 
0.170038 0.938539 0.278194 
0.804956 0.321844 0.563854 
0.861991 0.142292 0.556897 
0.226298 0.859103 0.467089 
0.902617 0.233919 0.429733 
0.278797 0.480171 0.866254 
0.520529 -0.780601 0.355592 
0.353646 -0.369793 0.891966 
0.335849 -0.863460 0.367409 
0.171616 -0.460361 0.888292 
0.540478 -0.156610 0.876418 
0.430235 -0.874141 0.196506 
0.625502 -0.544634 0.600856 
0.292142 -0.171593 0.974126 
0.231675 -0.943864 0.182135 
0.917870 -0.371742 0.185731 
0.787744 -0.399817 0.525222 
0.740807 -0.654308 0.158513 
0.887449 -0.188101 0.488551 
0.963792 -0.180905 0.260979 
0.532025 -0.320776 0.829184 
0.579933 -0.672213 0.488814 
0.614151 -0.766935 0.176760 
0.717089 -0.632940 0.323600 
[...]
POINT_DATA 1108
SCALARS u float 1
LOOKUP_TABLE default
0.024702
0.024471
0.014780
0.015114
0.029783
0.029639
0.016468
0.016466
0.014054
0.013893
0.022871
0.023002
0.025031
0.024852
0.023965
0.022854
0.020768
0.018934
0.016898
0.013173
0.013062
0.014496
0.016718
0.018897
0.021495
0.023240
0.024808
0.024575
0.023623
0.022517
0.020878
0.019152
0.016790
0.013572
0.013490
0.014821
0.016674
0.018931
0.021530
0.023301
0.028474
0.026300
0.023439
0.020998
0.019491
0.017702
0.016477
0.013788
0.014079
0.016785
0.020585
0.024547
0.027916
0.029465
0.028409
0.025875
0.023596
0.021102
0.019391
0.017765
0.016520
0.013721
0.014379
0.016722
0.020633
0.024772
0.027796
0.029468
0.027558
0.034268
0.040697
0.044674
0.045246
0.042073
0.035993
0.025238
0.025095
0.027709
0.030245
0.031194
0.028756
0.025729
0.027384
0.033979
0.040367
0.044394
0.045403
0.042115
0.035937
0.025080
0.024985
0.027443
0.030106
0.031181
0.028885
0.025676
0.016666
0.016923
0.016756
0.016864
0.016860
0.016134
0.016123
0.015735
0.015056
0.013056
0.012143
0.011707
0.011280
0.011770
0.013210
0.013856
0.014724
0.015652
0.016724
0.016804
0.016619
0.016516
0.016413
0.015957
0.016040
0.015676
0.015125
0.013157
0.012534
0.011962
0.011533
0.011829
0.013402
0.013913
0.014724
0.015720
0.012607
0.010914
0.010370
0.011609
0.014562
0.018228
0.020851
0.022735
0.023384
0.021666
0.019481
0.017384
0.015564
0.014587
0.014016
0.014972
0.015824
0.015145
0.012454
0.011115
0.009566
0.011557
0.014595
0.018182
0.020864
0.022652
0.023392
0.021751
0.019669
0.017357
0.015493
0.014477
0.014042
0.015054
0.015850
0.015238
0.018893
0.024038
0.028347
0.029895
0.028150
0.025330
0.020900
0.016826
0.017361
0.030076
0.036608
0.041857
0.043811
0.041916
0.038663
0.033238
0.025704
0.018662
0.019067
0.024098
0.028449
0.029724
0.028116
0.025316
0.020786
0.016621
0.017415
0.029867
0.036473
0.042046
0.043414
0.041680
0.038312
0.032835
0.025544
0.018614
0.025181
0.015930
0.022042
0.025254
0.013971
0.026306
0.020246
0.020304
0.019510
0.027111
0.028618
0.014852
0.025926
0.027492
0.020446
0.014923
0.017103
0.022098
0.029834
0.017644
0.024001
0.019046
0.013499
0.022870
0.024646
0.013239
0.024880
0.017193
0.022686
0.024943
0.017148
0.021696
0.023798
0.019380
0.023800
0.013567
0.019381
0.023279
0.024534
0.028744
0.025990
0.031283
0.026831
0.022911
0.025093
0.025349
0.031936
0.030359
0.023013
0.029674
0.021491
0.023790
0.028682
0.019373
0.025895
0.025019
0.027360
0.022583
0.022317
0.025101
0.026441
0.030856
0.025737
0.029183
0.017355
0.019698
0.024943
0.027959
0.028123
0.029054
0.031126
0.026462
0.029488
0.025485
0.031660
0.038692
0.021789
0.031878
0.039314
0.016907
0.028917
0.028602
0.030606
0.029376
0.042673
0.043416
0.018235
0.025727
0.038697
0.016178
0.026043
0.045541
0.043146
0.030313
0.023342
0.022283
0.036877
0.023337
0.026734
0.025928
0.026702
0.020383
0.014496
0.033499
0.033237
0.027072
0.033697
0.041434
0.033922
0.014888
0.038392
0.039693
0.018173
0.034484
0.034001
0.017947
0.034507
0.015762
0.027767
0.042772
0.014235
0.030608
0.036736
0.014118
0.023617
0.033451
0.018543
0.035744
0.027977
0.038988
0.023414
0.016443
0.022252
0.032494
0.031123
0.019417
0.016467
0.020123
0.021083
0.026215
0.041344
0.017247
0.032036
0.027945
0.025802
0.037692
0.023933
0.023478
0.028595
0.043254
0.039845
0.029420
0.014521
0.028942
0.026162
0.030919
0.027186
0.023181
0.025060
0.025231
0.031766
0.030535
0.023259
0.030062
0.021500
0.023940
0.028243
0.019188
0.026002
0.025011
0.027338
0.022461
0.022293
0.025134
0.025940
0.031006
0.025791
0.028997
0.017346
0.019817
0.024729
0.027725
0.028118
0.029108
0.030990
0.026110
0.029286
0.025400
0.031860
0.037976
0.021544
0.031310
0.039358
0.017061
0.028704
0.028449
0.030690
0.029252
0.042631
0.043366
0.018330
0.025493
0.038545
0.016093
0.025817
0.045060
0.043051
0.029883
0.022985
0.022365
0.036712
0.022741
0.026601
0.025886
0.026599
0.020480
0.014653
0.033524
0.032506
0.027019
0.033485
0.041065
0.034031
0.015153
0.038037
0.039279
0.018287
0.034437
0.033985
0.017805
0.034426
0.015709
0.027810
0.043020
0.014059
0.030509
0.036730
0.013927
0.023579
0.033234
0.018500
0.035558
0.027807
0.038809
0.023482
0.016159
0.022116
0.032289
0.030935
0.019303
0.016506
0.020154
0.021107
0.026158
0.041217
0.017273
0.031961
0.027730
0.025484
0.037517
0.023703
0.023427
0.028424
0.043162
0.039932
0.029149
0.014336
0.025190
0.015925
0.022204
0.025369
0.014039
0.026314
0.020225
0.020341
0.019541
0.027242
0.028671
0.014392
0.025766
0.027481
0.020376
0.014706
0.016641
0.022139
0.029867
0.017520
0.023899
0.018967
0.013504
0.022917
0.024634
0.013035
0.025012
0.017420
0.022647
0.025120
0.017252
0.021821
0.023894
0.019563
0.023778
0.013399
0.019564
0.023375
0.024597
0.018316
0.027865
0.029390
0.020910
0.010835
0.020659
0.011559
0.031190
0.016620
0.012963
0.028155
0.037958
0.015361
0.020508
0.034919
0.012448
0.041543
0.019443
0.012463
0.018765
0.014393
0.010366
0.027129
0.013459
0.024507
0.023709
0.016345
0.011501
0.020434
0.013778
0.031048
0.033501
0.022598
0.021973
0.028806
0.012277
0.025845
0.040112
0.013346
0.038180
0.024894
0.042292
0.015477
0.032815
0.012645
0.027246
0.011252
0.013849
0.010697
0.018103
0.010488
0.025333
0.017556
0.013952
0.016838
0.016567
0.032080
0.036161
0.011783
0.038178
0.023448
0.034209
0.027078
0.027365
0.020116
0.020876
0.025036
0.019307
0.023143
0.017211
0.017064
0.018671
0.017217
0.030426
0.020302
0.018726
0.018341
0.030449
0.024509
0.016175
0.026036
0.024363
0.020057
0.020732
0.018247
0.026617
0.016686
0.028361
0.018951
0.020218
0.017074
0.021299
0.024317
0.023184
0.028353
0.029769
0.026464
0.028657
0.024006
0.016455
0.029958
0.019647
0.027199
0.016414
0.028458
0.022012
0.030734
0.021599
0.028382
0.023239
0.020245
0.022149
0.024391
0.026489
0.029563
0.017741
0.015340
0.024603
0.030884
0.022255
0.019549
0.019366
0.017243
0.016452
0.036809
0.023775
0.012611
0.036768
0.026054
0.033763
0.022142
0.011672
0.032880
0.021107
0.012790
0.016911
0.023151
0.017125
0.016806
0.025381
0.013882
0.012663
0.035099
0.041221
0.043271
0.036456
0.017705
0.027997
0.011316
0.030766
0.038900
0.028291
0.017704
0.028474
0.016895
0.022472
0.019945
0.025647
0.028221
0.027797
0.036654
0.015275
0.019844
0.014801
0.015027
0.016070
0.014626
0.029926
0.020672
0.032788
0.021878
0.040342
0.043190
0.040432
0.031888
0.030100
0.034828
0.017343
0.027539
0.029985
0.023760
0.012853
0.041121
0.013550
0.010614
0.013664
0.023197
0.017531
0.013160
0.015905
0.022773
0.015625
0.020418
0.016650
0.020077
0.012855
0.017277
0.012411
0.015581
0.014823
0.016476
0.010401
0.013603
0.026118
0.021059
0.022169
0.027999
0.017112
0.016606
0.013092
0.020261
0.017002
0.024798
0.018805
0.016972
0.014831
0.011322
0.012473
0.014900
0.017533
0.020332
0.017272
0.023308
0.016734
0.013759
0.013968
0.012325
0.014640
0.011402
0.013826
0.013925
0.019640
0.014577
0.020480
0.025452
0.028091
0.018724
0.025632
0.018951
0.023017
0.016930
0.019464
0.020372
0.015541
0.012476
0.026068
0.012309
0.012656
0.020889
0.032654
0.036018
0.022841
0.011618
0.022066
0.011957
0.017547
0.013786
0.020348
0.040237
0.042110
0.025979
0.013549
0.035705
0.024785
0.043157
0.015380
0.020241
0.016799
0.013775
0.010947
0.027914
0.040062
0.027513
0.017911
0.013068
0.012190
0.021013
0.035576
0.029997
0.034738
0.038452
0.028474
0.026951
0.033058
0.015633
0.027849
0.015437
0.040810
0.040296
0.030558
0.043281
0.019744
0.034708
0.016683
0.028929
0.011921
0.015313
0.015156
0.020452
0.012849
0.021884
0.027911
0.013654
0.017300
0.034786
0.021664
0.035110
0.014529
0.030415
0.027222
0.023150
0.017439
0.013079
0.015757
0.022737
0.015560
0.020427
0.012793
0.016606
0.020170
0.012927
0.012660
0.017297
0.011993
0.014825
0.016596
0.010321
0.013711
0.026108
0.020909
0.021993
0.027964
0.017083
0.016605
0.011380
0.020243
0.016851
0.024868
0.018797
0.016987
0.015306
0.014471
0.017888
0.020412
0.017051
0.023300
0.016529
0.013810
0.014297
0.012077
0.016291
0.011288
0.014050
0.013742
0.019652
0.014446
0.020554
0.025352
0.027994
0.018519
0.025602
0.018825
0.023030
0.016995
0.019455
0.015254
0.020477
0.014330
0.025968
0.011375
0.012912
0.012720
0.018279
0.027863
0.031754
0.021039
0.010898
0.020765
0.011699
0.016682
0.013154
0.038171
0.015374
0.039516
0.020459
0.035126
0.012440
0.041191
0.019419
0.012572
0.018903
0.014452
0.010494
0.027369
0.013481
0.037675
0.023678
0.016373
0.011650
0.020530
0.013899
0.030652
0.025005
0.033728
0.034614
0.022827
0.021977
0.029092
0.012244
0.026084
0.040303
0.013304
0.036622
0.024909
0.042343
0.015388
0.033042
0.012617
0.027507
0.011218
0.013993
0.010861
0.018166
0.010572
0.025518
0.017474
0.014080
0.016929
0.032522
0.016611
0.032155
0.011874
0.027943
0.026086
0.024461
0.028854
0.027722
0.020940
0.017980
0.019293
0.016807
0.023944
0.016986
0.017800
0.019721
0.024096
0.029885
0.030537
0.020381
0.024977
0.019500
0.030130
0.020723
0.022444
0.018082
0.016408
0.018959
0.018532
0.027624
0.028223
0.018327
0.016476
0.017162
0.016628
0.029104
0.027878
0.030807
0.029555
0.027655
0.023045
0.024128
0.019364
0.028011
0.024604
0.030122
0.019561
0.030512
0.023827
0.026275
0.022269
0.021047
0.019929
0.016642
0.020872
0.017792
0.026459
0.026890
0.018835
0.015415
0.028315
0.025915
0.024481
0.016368
0.019946
0.024444
0.018529
0.021557
0.022093
0.034436
0.024284
0.026518
0.030321
0.029659
0.010995
0.005707
0.022009
0.020565
0.024963
0.022119
0.036311
0.021074
0.022692
0.024381
0.036942
0.028118
0.005093
0.014239
0.017639
0.016956
0.021339
0.034266
0.029119
0.032621
0.028336
0.030332
0.024760
0.036721
0.035361
0.031912
0.030457
0.019780
0.037468
0.036765
0.014241
0.029049
0.012939
0.028140
0.042181
0.023289
0.029939
0.024571
0.040304
0.017064
0.017223
0.036404
0.018552
0.021789
0.033707
0.040607
0.028133
0.027334
0.024905
0.027016
0.019730
0.027524
0.032239
0.027540
0.027788
0.024016
0.025862
0.026580
0.027790
0.035040
0.041496
0.021408
0.029170
0.034511
0.035110
0.035178
0.039187
0.023762
0.028546
0.032309
0.038937
0.034945
0.033327
0.030652
0.035593
0.033598
0.041269
0.036830
0.029792
0.015574
0.017143
0.013521
0.022153
0.015863
0.015419
0.026850
0.030273
0.025582
0.026416
0.028241
0.029050
0.013888
0.010647
0.027553
0.008300
