# vtk DataFile Version 2.0
Unstructured Grid Example
ASCII
DATASET UNSTRUCTURED_GRID
POINTS 1108 float
-124009738584641285288889278926748099885187232268895022101549292326195967522310109682287842505085180444672.000000 -97441070357571431544841784435403684369848211272106608313826066696290430351199649719768283477661167124480.000000 1426653451314767207866578610982733935724280191359132682441015446825777948321637997126638655658633723904.000000 
-12205639314094426135546071590466772593570315210305991369025816984067834714515532134540932012046085521408.000000 -39696789483808820153114992999888451356024520572894734734372096786912052804628116398727143443800705204224.000000 -838039689200849958845564354658678724712980127416129560953727417986894459814300094354714522835417563136.000000 
119481884761090786681058678493173795934849765086436221438873085071235683593788128385780984730599466991616.000000 -1009114386005100487208862936972458107233586492896289405195570855765577980959390878440421563561632858112.000000 -1900982370182522070251335482607443482106177952194497678877007476802695292748981052198741227880371453952.000000 
-2242873881499911208418242358661767563920619645103423801722367463578786734593138914175608777142958030848.000000 -24283214093264733730207277571762490549988702148895113636135483333663292203597514672727725073115625029632.000000 -326443322437230354266565534330322209338351601906949657699116367876443142999985320026811830197277350166528.000000 
-12839859197897773998182544785591467605525316995010632261643012700759577875342021657958397199006543380480.000000 -70991060113560618874217106757084056537830274865987113434399610147512106528501642035253613600598713696256.000000 -95956175951900578218180092540664998642587098640450449396537090897102956474411199720027621237367305666560.000000 
-11607901606452790651677057986490638647178357035338103840118159765378558397809254102892208144963812196352.000000 -3505665251113109845999279620114895934998173785027589968109817698971403002679435949959669613470102323200.000000 68643296318742707110769797053125308961887756294762092453056850128878125049790172915027384607648161726464.000000 
-3311356554289289715088538718104735576808506008159737572778209816912077544998259267707501084648344125440.000000 1698890173266954024196924919694031981921340520738749785726267218378738861526677629976344345090755395584.000000 80881662408793717490847156781922083909092574977316903487114143962131956239895484281203911827104597016576.000000 
-69721797358404626526975340879296114668664250241700667485613375252630922986766344205431944978467714498560.000000 -3323753983056745457840844420465291256371876532212260454162502561784952639565948614494650860259086696448.000000 -288951866775223058198788363850872285722918981341280702257950927757907372701798400400005486530604826624.000000 
-7483700804168613241900217536834227254765783943768846952607874111375877395192038670440860841484832735232.000000 -386265806413056876343462906666981701065402552336497199037773404440314788870237115125850259594974068736.000000 1080909366522399444413532186218177248661917097770893620080901245043946621501731465397857202208835108864.000000 
-1816747474852401711481494841998556216126007606565987811257050553271674087161077432552582254698843602944.000000 -424380617675164608756813740134036439958223106784938340275043302925383796462521839905983809728337149952.000000 -45706999602919012740445573262291834855657744202113695917340328767565692419258914441678239125417142255616.000000 
-8017775166994469897655810695575175742520723596916630497710884683211191952162911430193765148785060610048.000000 6350448526805122942414213694984509314700101595398648612818898648642297793227784691812639132881212407808.000000 31894298125650014728460925920889446481254370022658971197714162556043151566071033673442362232581623119872.000000 
92656995512687424760774475019314614262721121175534034882982970389468315526279095100323766470774408347648.000000 21184646404536021594401391525453451434216065227261447745707298805110137619060371213606689124745595584512.000000 59451522550487376046912619541654440919466116722353355508538778589956221406137595714003275335017168896.000000 
-8967648782719328648578191016257895128578294990087438720401905212645034827818551692090333125110000517120.000000 -78875228661879063076844048068725040541484507981863881183528573401352182745964185020206694621516092407808.000000 35808688527223606389190962552547484239103108578277508069500930942757639743382219899463970942326346350592.000000 
-9873850598181485589721971254406063177521396048654104809296668911460134287790316288524425560797936091136.000000 3411740911852676349349569112277787821780069317273518808353618396957016400184543721967060439980058869760.000000 -64712822053101717538602612284577408505121152346120545758423623892054408996895678737218462225226709073920.000000 
35009443327569195969368460696968194597915984672269809332613243201908989846265257010096489102673342103552.000000 3335912614331262124342686161271144574327380895782629572788873396514465031953659058243801901914136772608.000000 -179520447876547496163722729237799378207240937105497073332051594936006609006667790493314028060568190976.000000 
-13421095103090624802849681354508808484152933191179575006915823900554460159049296529008477149569658912768.000000 -3583240352258391888483769025977807465727531444665702143853178032880643166703837406540412829266561990656.000000 -697529732495922417922108791182780374034211440069343960235556292030767488100299869828294450915672326144.000000 
201453386297006074916587753835066756319015594733711416247678974088119212550112524803368385703239521140736.000000 80603782784111751315007012859484486230103646060306693065284264179915806175087339022661774752670166286336.000000 -1368470891311941401814713036044621689289312511978227445218535509998090382636452866815535719323279556608.000000 
-124343895962808473021503932421287869000570571176770598501282234914062828124162747545881780944486233276416.000000 968720783104871093440176496742851469656433154379926130017755520184708102043348348823280814955798986752.000000 21566456077849449795401384153268978834773560760055037305163218974827240013327044423945504403463098859520.000000 
-150967455482699927796036849547547848983154675204950328649285562412105765155591438193478510025978297712640.000000 30104230090386482403546417950933022434179173442007705355840659931650500374594536543585116398726328352768.000000 -1122425591074697224707015419716695927579431127694428993457260318706249466577947308510056551682775449600.000000 
-9120204454584262294868106107328102095707072757798943672658551140492033474973086887638603508292113137664.000000 8632984396387034645888353386235657226140453832316114590120704129785477852706317004234247441425390108672.000000 -1209746366869171008839721396296131117459351924217651977373199804565586662417797953793030839012287315968.000000 
-15368675188573694633853837378879346449760951624633154578303515292729525073002496473053349265872972152832.000000 -3156879368250582213074974731348872208480762636758615274020842487250079682169618674938014491186242256896.000000 -2006885680129569586113163214897747099853500684668751227649580885849611683049608277104806349377525252096.000000 
201887350127924082034721232956065383375213110325526887966566460847458910916979686130513056851317579841536.000000 5256783446490389127854078058325469786108076493750397626365850013178419766076089114256904537018061553664.000000 35821636287942454675894110190644689934367670722765413105686481979740963771865856752219239814304360300544.000000 
-251494021496298926772565114355251696922858184885493401527754263497562393304630641339698619003171002908672.000000 -5043631155165077378400200198712408203608441472398208818779414174308294605068952762592932116903738998784.000000 66304664533522771517808692799437582067420528250283545091861829567293719206123860983863446858718441897984.000000 
-12706109940007743892192439368934616578041431006282744480943491323070126854040028470886429646489038880768.000000 -12836579014143666349063387348562312435511590722170396580103185418625141138694301236524870638938330497024.000000 -1610873248912020456863844141298915943723578786955297259035239261138042361869446008788391744978619990016.000000 
-56179691634066391470366115140987368046717085649423762612353497734402973325132736146937023016607798001664.000000 -30100762971779196883728375808854847090592029676302748871531816784607632522492724367275908893666262908928.000000 -1293562338649925040808782431650544018335462737638901026450924373361780948925288609733173850924723994624.000000 
122880595076821622423605783464049043004084663504362289618203027068631453126532653843986491090640356507648.000000 -5563594013754969849017829194006950461617413306323955448257973562219494394752842961013989570464744210432.000000 -406433851889413540166835549326121757131041325638408375842242602502151425356748216697651582323526461292544.000000 
-7579746480296442510584086142357202376926045895643978057554489299881694214814627860477224690014555734016.000000 -42923500910404545083792171261832928864294186041708471741913055548026276036181643353331483919918804500480.000000 -126353123470262305232217517008307505132763669985170112698637704236293807857241519366781003836092925870080.000000 
-40050527340446185461404936281642252204705551080888481269750148908078469612193959260585210618274235023360.000000 -5644702604557746663564857548022864314271202894958118078720668526916338635986177496593891246633320972288.000000 -264470693751460387137797178779985635248259410243426480783558249864695682964562754778569746188599329554432.000000 
16028787487183183615528556808375111956142631389460224469447427051890910464988733625752100387036868902912.000000 -3187352870054264821650238797420146715807673255790233179161921513466072555761908981330923055398942408704.000000 390090457415677616400419723803660930219394380947289788990238088320060364225408195976799504319570314788864.000000 
[...]
POINT_DATA 1108
SCALARS u float 1
LOOKUP_TABLE default
157718777564151830524853595034135449773400885842398741726107184539969680864983676132872907695721377955840.000000
41539319167606469132745142158161444910499001909436224233205999548539140967615096188342108646323441893376.000000
119501267072271532349811417742606406762654201551501013620736962980331853486812935912035677269169281171456.000000
327352940621900015065791134027624052544051989488624687784270188617800068528150823968839912703606107668480.000000
120050740537412425406571748155850939879410212610412471541582512722139354370254759189652492791565101563904.000000
69706062850089787935065425727037503643471916466926394396661075625057537219263640318213078544332923863040.000000
80967244142681130229354008776704903118488927997532146406051786240341129533204717268760755883852683018240.000000
69801574914951858736389954157604486916768357358829170914027648745336804389391259557300541184738391490560.000000
7571218135686867678666870164424772186740535235080311025417799744083112427382544246265266895189388034048.000000
45745059656724458839009489057422746401134631769050854724810379142155531107372570204152727627893808562176.000000
33494166179320191931732556164977837772281536235120454537614664171197511904159345207775195455883543838720.000000
95047943666377820783326279985621358919035827868440080706336877738578634567820849420608963662359325310976.000000
87086064299597515022746479717896146129327583070079270932213778795807612645811040016764570962486158688256.000000
65550608233343086653750527694047851505663312215986332877907048084231791588418038213275258408628262010880.000000
35168475410059213404797061696031538958632881076098459410575726518792218001590785964548827268544662077440.000000
13908700619251670902763952801009694154107090563938938297712458583293032819224530360687078641347923542016.000000
216984583236273706383413013118403147238242141241604429667836627763883070458443155837165140508222068621312.000000
126204020977634327206174396162219860070230153327141730895952127400731538583499263284531249431722294509568.000000
153943811578976487944738355716600633014831619192534142370987076392571677115466102885054031302163427229696.000000
12616260743732026923643256263053585793416992047247150147559758844366041636429091120369734295995887386624.000000
15817384566693571406970158905911445429873215896800064478844376591851721984007768235783977186639795453952.000000
205108082581413494245001671900015836079169571168724831939401890382491301180328297313376160829229041188864.000000
260136482644232779022445128749640778213752505180005053534836158601993352651535450382374767326387322748928.000000
18133336792162039626850912566489168022595411390384633274737479408524483243394298134317565938030744698880.000000
63748623413419651521448908269680040932199156544520520306307569837330125504221498128901778106499347775488.000000
424639930042441268700031609827903913120076820753315222976901362960051344299719335937829484751316670480384.000000
133659983906187933637106726625727771456441041634574004867058807135122098286003804122375698171045244567552.000000
267545613421563078341207366351909115527156668553212164131542722559406799096171355163879339433551479177216.000000
390432639790015631926705535822835074615120521263306640708781627596783330072190421986011923226346081222656.000000
32276235062710188814946589841428994898877213084008008642522491472080370667282774040101688127011864707072.000000
11260309043899678080954321646076849012224805738886907588485589871761133729783388864701948222656407928832.000000
5344505504070342046433058868726344818965718793763387714482425291930878479490944831519833744731508047872.000000
42540669653134300529209096237540569918667237510968558242627800076048694856864577086136490234359255662592.000000
40651593524478256622397936957433205771483455235404585459664873844511192317396574694901703391412117045248.000000
49639632956242963523001185708076872954363404854497191142094054970108987327589204122820346219976198193152.000000
32732571920318240079475487703629119725225638347448263075474941364514951537114204427394591831186917556224.000000
133199002945088558214559316068912043461407057864969105776404786684616185474051035929915368201980410331136.000000
84336858631324709287393918186810077345924341800658477958668873395766664164785570985068939946879994560512.000000
44409137711155295222781478324893091501794851023330860142391498190272828689896052025515803931035991801856.000000
8527768645562953702134461596548292648210429599108340034183412386345796663729377592218435516255682166784.000000
59332999689693819929654762030785478639394930673229175921359218337207549581013187895828726242787408740352.000000
58688954035588864001734367534900829965990316065489760446341794796210101610544121463338183121405701259264.000000
52426439545867897447522906938850459428385167965453654017170787660789397113679930784636786640834724364288.000000
9446753727427461869436699785328707486357619102477341347826730968031227681292697508278188921232788815872.000000
7504837472860467488160519064012421080215925706674586045905258484532446566441603015571545097690826145792.000000
105813174627423414237450505133175381168019388068249648140191893532062220558729416411106611750997445312512.000000
47464287085924888178057824095550711030366674658963178080738011649568555744169092202608356233099152982016.000000
86751190248246986223439907435454746158600185814972573410740055893235523194877618927766142856797209231360.000000
60206745778258695896784197483563223250002473745350119909645932435189730673646878667852131753610744692736.000000
139291633162889285671470150637101355204123757501503397628624929539930433947441876715822835536875015372800.000000
128443716193518733272048647131722700872471810105700347689370658049931236553970289181523871579691454300160.000000
57509603623558473706561180509096379466102922399340953452172703325694895776856728913824363814914210398208.000000
6263240266412573528969332842494132637621748824087805388005453740937491407955118766592739160527338471424.000000
99203905320748076898799555393818529173685705186353030395618464848047259302927273141125309108939588108288.000000
25542216622094011705769879496950786691004467396330246037487298707954104953139089919958729728800067682304.000000
58984197572901676011275533104641473361610191958539213078586048545825011600060427385494487220648807497728.000000
17378975485892154657927135271198184160888199314855482207125274897735830348508455341966060209275167309824.000000
92677529948241536171094243119674049949202055357379991470751267860177929400174591317736935466828122030080.000000
48732035020924103703203341121438025568071770636931716464630472484671308135885710761036796711001856671744.000000
22611924439234441728101154312788308875174396427427228854416207628285054963673693071448416975752464957440.000000
289896834783503088614861631596638231243885520743112417014067105057300897839337602012757395785152594968576.000000
92019073245685442277170965333774273615685204133153557871218682862578804202625462828739370120345519390720.000000
21353661950677435822451277991011001187076806029975347528591915155502507581404196738932012043123373899776.000000
144063063387125317893969548469882816997537545249057493719766987551929795968190297974905879753116008579072.000000
28782118119785440930722006502097279871085155163284672523692996237599326651760389884399624118492003827712.000000
13607807519935154475491124377121300490148389502644224416900172414215348333047315508544753180057496715264.000000
113755863651012222084623013936619979103341404316887104501314036217439704338276412551890653546104448090112.000000
11818889120399295362089301286381110123415069668394300703000431364140425308187987996924563087261270278144.000000
15001343058776825406308126061180667392742203566170686143463386940768851438188296603516673470986142613504.000000
108452139359078020655033382674340912293353799411866721513165063897364170366408986746657757439512880873472.000000
25074670477814795156355387878808748855982915568826760996533413978378531687194898438911680864252313206784.000000
44348984085107746534836370870176430609429741201331561182797497648298181633918508100699940470901398568960.000000
52326979218918665165552568336479370755842107997323851519833430047461984664464876516900378252570129334272.000000
179267010189059757435811340389150427947041635718232818044009375142636805131132819968623909666545886822400.000000
41977432158788221860235527885880641578251915668963646116574516183396061190795451376133755512675173924864.000000
69505988522862405677394021639450223449473534931105592510186604630755680012504443909660880371691548573696.000000
64318500982606104374132478043385641142347679422773349653251661383924505997703632906127822761726102732800.000000
76350437902287775762688412983022618861647519645098329506254521201714430151641834272086381035385513836544.000000
320253997228516750961882695184459047568590584587952681017272407030927800250657962460332299821693899112448.000000
12671252359264136432146667314056541482854910370546854991374583596200514880601712769160940278847161499648.000000
10101432505706170832448494640342435641663705211518791831844530731324777647910302042635457186774174924800.000000
26476817379192721879862745784939113719384262670222146949807823000591265873000276897491684722846455562240.000000
129624131001082609868177133770732364077799980805406127585264302371781266536614146980873824994488110546944.000000
192275408786926541343980676804273346392241372463055648141813742708740422745304284343752251760420054892544.000000
145106322503744976266928045224726240769240835987875037635306735022615776149285527677270993403446049112064.000000
448123968059066781412395503917352864525990749006166546112177094891378184500645500810295813154268499673088.000000
38608263148235389668703600566096367966292519138476976247051127389472730822127601489092622189123199827968.000000
96819324911118086365697908899600726334692206605168009964491384622378208679717199951896957754662069469184.000000
16878527515355303574673561714109397052462484961227519097649757948390121037425857523317194763888536584192.000000
22080300633642890848336519238873534432432300863654591385811740573206953900232423928604442566485891612672.000000
32950810185016822516466772073437965820942805168035543525412681772078215014000182687589635799889360191488.000000
8956248391101819802278444071237904239915966910453261777216594315525773615170915109387391836394339958784.000000
122247879042295537598705811158282565678685986558946747697710121989641141487915724996064997158991022784512.000000
455700521114157144002295940034725819683981308962027737946307232316512654908001031375508643664261581635584.000000
25911385530355478174087199329768117449859451802520026454257276207588128724260849996226638288372082147328.000000
42127142097756818529825867682920885890676693730039045210520447726262505986596324274594747886146770960384.000000
57449473345367367844811719566162996627920088377162223379081208062883922800946401464573943612665726238720.000000
115938590133752354507003552661333129870311868879753643975443961267349280110983479632556980294795699159040.000000
10984073849611257530198772387652580438212470119471328021077403573409119438688769425537210508818262261760.000000
72911865760352923994978060160021479707965381066020378546225082916473307038182809778886622411893912895488.000000
12580810727380502358465829591763956970350766225695305032523666550676811177214463980060958231909078401024.000000
121981888878148761893494991366894466407092849433750733690618566481092827791890116858908478966888245755904.000000
82806236113141364965272623565655360712251900180611494308772196955504243364344178050060027817217224605696.000000
33468550770124444801307119771950771363832547244703919527915651248293288217031755427762142091963208302592.000000
281528475391556763204418628259862683841274233511281556053192853398685235903727316365819198445982079516672.000000
64204071323350317648756319225277813867470212689814108070001539806131720763659809442306851831686214189056.000000
10250203465535985004270159044999457208745281514554268207797665889160375600928078908877203588175227781120.000000
15001793128361457302384464933608987994074467475171415519151313736030047468261367808061788790694522912768.000000
147261649810954814515552880258439044514439825963305616965433470478930103634512086014342494462746866745344.000000
9271090026739803229973371496956643977913889613084560261453143632162915585990012802317132035744153468928.000000
56931623488900474413049981542949368447255885683702322037255781702030882870183193898135206302543876456448.000000
211001020680264300266928247310916086707045121703268349070709656552848393557317013527851835849776908206080.000000
255490596891139632027604845606633380304236031421335624953620431457119570605721613099738429122041700417536.000000
21180162525198024761199887008766503901899273646789438967123265155889109101524771270440514471882248945664.000000
12809007969667055662254488207290231292409385500377288895833501500510768293445084109440040184011011653632.000000
5360029561916946122959287972855004608076490935845551314959003139881654689399317734227066937847236788224.000000
109577328278902727309160823529869615471601553605432471622846158175876993279500433883174681463207174864896.000000
71850433375095838470208328676968061219931263645536388836013055679405074685658189875168213397944613732352.000000
14540345086058947514575305387185294771457843397065078692639149431135668722091332955546242796544470286336.000000
32743507374907675731735686009544358722738343222300733993763364264988902122416841576120643018963782991872.000000
5329928149267981074458992172119972336109066581968356740026913653863739892587169069539200444669024534528.000000
22186007322715811386899366272820389627930123130777625621865844796380690226033073951360974965759279104000.000000
2432557693849570803555899944180627285187066172374719249608224505406107894496058300287771903088673161216.000000
34541344191842793467157582896422941194343332426207319210960776416794310952324542793306739753934898855936.000000
7568185455040327030948836709580751541612398220471806658623943630145798241625804564777933366659840475136.000000
5214793374790838602986723857456690439717500688541751664967276201833611060800001859202354793385362980864.000000
51273699661952211312741653090348223551705517413540830753947586338571028650835840880135493932672046071808.000000
2545492851675903986569209882849765572177798288553483338170840582274103842534255545666913864603161067520.000000
38593682377789197895601237231377003980525589205195237458352952060990377116794059817433022034469514641408.000000
214968206811582365240383243853181438880039365650131412650205477456904922818972513098233704197926217056256.000000
54936418147540298504075194529191387083790270898141813091383503146073571306128632486637844977279576309760.000000
61236741112895280291457954943517247929301561038366199888640778193171087829539492044402626744493121994752.000000
31077611628028142169735222065667133041343826378083889567593581543362432381846925691466723372388034019328.000000
2695849325444258460873471875230802266208098195856216630283118031151535244593878857171553676029526540288.000000
16095145572305273049467774847918848205794525121725964073280118696459721927243536854431373950516522385408.000000
3025910116808049006879137690043419147973860776342262236555344470072115991327375130129400262152794669056.000000
30858083684413142117319372807648313789677252130552338254062803500220733336369234454284779259023090253824.000000
36634911324489213777047238357720784285033829994072335441574583672424594586401439134880199952842709008384.000000
118269062554319624324535891405029433158338523451521159662996827107292397596640647506505969650559386386432.000000
111790480931126100579031693534611420415169951363366348094358210901224828756168259335698930421291359928320.000000
3826848015645491429849303765640609412939705584170581500068784505557014162420425285632204601163113299968.000000
394075984188909520603232605224599153396825346110251056708688395267483938713751806625545104446863175581696.000000
264857430393192304536257491402823870619297842891950447337537612699056501842601060925391085461667447832576.000000
240803096859681058292333786413706068537943250407430924211224420862395577397020955560186831682588549054464.000000
93455485361066755881283107701301929780578172811074597160310721223656387959981085851520961534882960375808.000000
194898265611969482266723170360831813689451890422281632456334205568203267376993998860836579980065382596608.000000
36050206881038800328569184846078919938732128691220452064661977076413142466018117164411276279957124284416.000000
245743951911277364323582347966646079925968370285021615638087601856941500116288098125235589563074043969536.000000
85175374565049280172364082581256726764902923114660013865657526508637459306730189354736587808833192067072.000000
37627521993646763878694291624812403893287991681953707907838476990563479043367082982926217791777024245760.000000
10932238605994764067980859251030627052110325695454783148949936267038645856723734595603245317817943195648.000000
34507322464357066906266913248728189476078215785956739875414552948868130922899783688523972352567154835456.000000
33043553106747320197486000327127444665738846353711308486092109667667457287589740334109424026291389071360.000000
56818655384990445625115078753178422984624511464700022376452564249575343037220405482539924970999054860288.000000
8490442289773199691461721201368633594654117691121724607940840397118538167053334756711728421354516512768.000000
7799048695425920480472510964486742047790481455361521010187810352235343312720065081365784654415122137088.000000
44917556814031340842738455505783790613637362957844114484233391577418591962773265362375780119074754789376.000000
54044475581137403392025118834462502765083329132303380020197166651959205429344120672713195686681171197952.000000
29934555013949336670908364182266350398282462398666932944504658894048105591160768746014500510587970125824.000000
61950303920131162747809663039036826221704243716075186961713698257028580728306512745352636862456439767040.000000
74268533121113938447976071071740710631321517903503014979108942311848859583981986955322246992887933829120.000000
37838308559688041011366206695400136171170127687696108881991631835918931120633117723985097957333281013760.000000
50799045150418326538076915849940593589188997394026831050698180638137162609525563746139248512933501599744.000000
2258632317181885065087260678773346248956859618728323288343381765726317086870551869408653055597247201280.000000
23166201423116978651163859034514560987605839731378671836543958491142342487012923156189004616641667923968.000000
18978671517907671832315876800849835686678835861176737694779658313943909771611073461374015557703737278464.000000
1498637424895833865209712311568827277522324474962589473795167664989039479435609377916102020772952801280.000000
164645586244574653789968153254837250857460228379929832977192903867796777177640849289853689966755294740480.000000
78739909719636528266446510799331741224535624658749596685957881972812508779356084949289660522374277103616.000000
6272129342090161045033422366878599208288838598325881608878884320119822534060911151674349717502350589952.000000
425168600090986978328055877124150535068655713416324400104812225856387845959020753134859661708269738524672.000000
6770963472021714834948165830488162918184058075884000279960821149932470645124528129440884513774457847808.000000
26778165717780380956775667966422400585520126173331994263574945596917363292950690657464673189602174959616.000000
6866725561802142282774304436415131885610868805270510412193814912286590143050014549527158698191687254016.000000
17122709509646955977473453173595891391812985866125171661361331604930405055837223742201917776678476578816.000000
9019176024495468956423288702500658232407828192358726208310546467316579448289881649032901616657584095232.000000
32519878811801693018747617967432831621611004820430405189527640365599500550175607673757477804610143911936.000000