# vtk DataFile Version 2.0
Unstructured Grid Example
ASCII
DATASET UNSTRUCTURED_GRID
POINTS 1108 float
0.998172 -0.000700 0.017260 
-0.998171 0.000679 -0.017098 
-0.000896 0.989986 0.002636 
0.000774 -0.989760 -0.002740 
0.016985 0.002655 1.011963 
-0.016912 -0.002752 -1.011866 
1.198254 -0.000487 0.011438 
-1.198282 0.000310 -0.011447 
-0.000635 1.190301 0.001788 
0.000584 -1.190443 -0.001940 
0.011345 0.001791 1.211259 
-0.011404 -0.001858 -1.211320 
0.978724 0.193027 0.017359 
0.921437 0.378962 0.016900 
0.828529 0.550087 0.015662 
0.703872 0.700059 0.014076 
0.552451 0.822933 0.011431 
0.380187 0.914240 0.008840 
0.193400 0.970613 0.005905 
-0.195148 0.971533 -0.000447 
-0.381818 0.915583 -0.003845 
-0.554338 0.824478 -0.007315 
-0.705490 0.701739 -0.010333 
-0.829486 0.551810 -0.012590 
-0.922289 0.380582 -0.014884 
-0.979092 0.194364 -0.016238 
-0.978714 -0.193167 -0.017215 
-0.921661 -0.379096 -0.016759 
-0.828967 -0.550284 -0.015548 
-0.704283 -0.700175 -0.013954 
-0.552667 -0.822925 -0.011581 
-0.380292 -0.914221 -0.009076 
-0.193412 -0.970676 -0.005864 
0.194904 -0.971254 0.000457 
0.381776 -0.915235 0.003799 
0.554263 -0.824349 0.007497 
0.705521 -0.701713 0.010290 
0.829512 -0.551766 0.012606 
0.922355 -0.380616 0.014921 
0.979082 -0.194418 0.016283 
0.016745 -0.191786 0.991255 
0.015996 -0.378438 0.932135 
0.014436 -0.549842 0.836991 
0.012494 -0.699759 0.709923 
0.010161 -0.822318 0.556512 
0.007082 -0.913673 0.381883 
0.003945 -0.970065 0.193152 
-0.002558 -0.972067 -0.198476 
-0.005774 -0.917406 -0.387456 
-0.008865 -0.827477 -0.562262 
-0.011435 -0.705476 -0.715832 
-0.013554 -0.555773 -0.842157 
-0.015361 -0.384073 -0.936025 
-0.016372 -0.197270 -0.993297 
-0.016723 0.191830 -0.991217 
-0.015815 0.378456 -0.931822 
-0.014562 0.549803 -0.836949 
-0.012569 0.699794 -0.710066 
-0.010130 0.822401 -0.556603 
-0.007200 0.913694 -0.381987 
-0.004094 0.970078 -0.193208 
0.002416 0.972059 0.198425 
0.005839 0.917311 0.387685 
0.008871 0.827526 0.562206 
0.011528 0.705405 0.715752 
0.013677 0.555725 0.842257 
0.015413 0.383980 0.935830 
0.016482 0.197172 0.993171 
0.985694 -0.000167 0.213837 
0.935062 0.000420 0.404025 
0.847679 0.000816 0.579142 
0.725846 0.001241 0.732291 
0.575100 0.001873 0.856519 
0.401743 0.002181 0.946403 
0.212945 0.002406 0.998564 
-0.178320 0.002645 0.985957 
-0.365359 0.002898 0.922181 
-0.537788 0.002535 0.823917 
-0.689131 0.002366 0.695989 
-0.814581 0.002219 0.541748 
-0.910567 0.001547 0.367542 
-0.972501 0.001158 0.179047 
-0.985717 0.000132 -0.213705 
-0.934923 -0.000409 -0.403869 
-0.847372 -0.000766 -0.579072 
-0.725636 -0.001234 -0.732202 
-0.574955 -0.001729 -0.856780 
-0.401753 -0.002132 -0.946438 
-0.212903 -0.002453 -0.998543 
0.178464 -0.002802 -0.985959 
0.365432 -0.002896 -0.922239 
0.537968 -0.002636 -0.824010 
0.689261 -0.002416 -0.695976 
0.814565 -0.002193 -0.541778 
0.910550 -0.001666 -0.367447 
0.972665 -0.001239 -0.179011 
1.183264 0.186378 0.011476 
1.138863 0.368502 0.011422 
1.066138 0.541437 0.010872 
0.967493 0.700681 0.010385 
0.845067 0.842297 0.009475 
0.701846 0.963426 0.007863 
0.541716 1.060577 0.006680 
0.368459 1.131734 0.005095 
0.186275 1.175427 0.003739 
-0.187501 1.176049 -0.000156 
-0.369658 1.133099 -0.002199 
-0.543091 1.061942 -0.003479 
-0.703103 0.965043 -0.004953 
-0.846519 0.843856 -0.006530 
-0.969045 0.701745 -0.008379 
-1.067200 0.542580 -0.009276 
-1.139742 0.369397 -0.010141 
-1.183709 0.187165 -0.010887 
-1.183333 -0.186370 -0.011528 
-1.139082 -0.368587 -0.011396 
-1.066487 -0.541552 -0.010895 
-0.967835 -0.700893 -0.010304 
-0.845080 -0.842450 -0.009186 
-0.701860 -0.963571 -0.007826 
-0.541808 -1.060562 -0.006603 
-0.368514 -1.131784 -0.005123 
-0.186288 -1.175379 -0.003755 
0.187359 -1.175982 0.000119 
0.369535 -1.132814 0.002139 
0.542902 -1.061810 0.003533 
0.702989 -0.964936 0.005061 
0.846438 -0.843926 0.006607 
0.969017 -0.701791 0.008541 
1.067202 -0.542622 0.009328 
1.139758 -0.369447 0.010151 
1.183695 -0.187258 0.010938 
-0.001483 -1.176740 -0.189817 
-0.003016 -1.134624 -0.373202 
-0.004759 -1.064879 -0.548223 
-0.006025 -0.968797 -0.710466 
-0.007693 -0.848481 -0.855286 
-0.009186 -0.706914 -0.979621 
-0.009837 -0.546943 -1.079866 
-0.010522 -0.373109 -1.153085 
-0.011112 -0.189754 -1.197176 
-0.011222 0.185981 -1.195383 
-0.010923 0.369025 -1.149338 
-0.010372 0.542074 -1.075081 
-0.009566 0.701284 -0.974257 
-0.008421 0.842912 -0.850194 
-0.006801 0.963697 -0.704950 
-0.005551 1.060350 -0.543533 
-0.004305 1.131114 -0.369340 
-0.002293 1.174989 -0.185885 
0.001563 1.176889 0.189902 
0.002990 1.134498 0.373333 
0.004406 1.065124 0.547817 
0.005995 0.968860 0.710467 
0.007694 0.848410 0.855320 
0.009350 0.706898 0.979401 
0.009918 0.546907 1.079810 
0.010609 0.373093 1.152931 
0.011160 0.189811 1.197129 
0.011338 -0.186079 1.195361 
0.010925 -0.368930 1.149538 
0.010359 -0.542188 1.075116 
0.009603 -0.701357 0.974076 
0.008370 -0.842939 0.850058 
0.006761 -0.963641 0.704842 
0.005527 -1.060277 0.543464 
0.004273 -1.131095 0.369243 
0.002246 -1.174946 0.185698 
-1.177693 0.000747 0.176803 
-1.129111 0.000823 0.359104 
-1.053813 0.001254 0.532188 
-0.954351 0.001240 0.692336 
-0.832643 0.001762 0.836849 
-0.690244 0.001766 0.961536 
-0.531520 0.001801 1.063150 
-0.359136 0.001745 1.140607 
-0.176856 0.001863 1.190472 
0.200366 0.001607 1.202104 
0.385377 0.001589 1.162441 
0.561776 0.001392 1.093205 
0.724084 0.001115 0.995247 
0.867185 0.000927 0.871329 
0.988438 0.000765 0.726036 
1.084213 0.000325 0.562706 
1.151432 0.000013 0.385768 
1.189443 -0.000207 0.200147 
1.177743 -0.000804 -0.176625 
1.129015 -0.001053 -0.359162 
1.053723 -0.001274 -0.532186 
0.954466 -0.001339 -0.692394 
0.832608 -0.001718 -0.836930 
0.690211 -0.001659 -0.961589 
0.531561 -0.001774 -1.063247 
0.359295 -0.001810 -1.140571 
0.176852 -0.001817 -1.190568 
-0.200264 -0.001576 -1.201999 
-0.385208 -0.001553 -1.162443 
-0.561785 -0.001462 -1.093358 
-0.724011 -0.001386 -0.994936 
-0.867086 -0.000917 -0.871197 
-0.988242 -0.000728 -0.725880 
-1.083951 -0.000278 -0.562557 
-1.151317 0.000011 -0.385709 
-1.189446 0.000180 -0.200111 
0.806265 -0.393364 -0.402847 
0.408386 -0.787217 -0.440425 
0.378753 -0.376675 -0.836680 
0.881748 -0.296418 -0.323261 
0.290440 -0.886780 -0.333902 
0.666360 -0.333907 -0.640061 
0.545758 -0.625338 -0.534304 
0.865318 -0.477119 -0.095605 
0.168183 -0.617639 -0.768803 
0.595681 -0.171839 -0.763282 
0.859159 -0.156094 -0.446699 
0.198511 -0.846258 -0.482483 
0.943904 -0.138178 -0.250841 
0.789093 -0.290727 -0.505419 
0.673994 -0.638052 -0.334717 
0.459467 -0.854287 -0.197186 
0.623619 -0.750507 -0.166729 
0.512442 -0.474449 -0.698409 
0.780514 -0.142384 -0.573977 
0.548983 -0.746619 -0.342790 
0.980532 -0.122717 -0.097546 
0.766395 -0.611737 -0.141159 
0.148416 -0.940217 -0.279244 
0.931867 -0.304686 -0.144564 
0.722940 -0.465634 -0.476716 
0.266050 -0.942243 -0.151304 
0.533567 -0.299794 -0.773145 
0.322794 -0.700773 -0.625483 
0.824508 -0.464777 -0.278102 
0.481581 -0.182083 -0.842947 
0.137187 -0.754256 -0.639782 
0.180961 -0.480048 -0.860249 
0.161653 -0.318900 -0.937765 
0.338132 -0.553906 -0.752725 
0.624206 -0.477563 -0.592728 
0.123003 -0.974945 -0.126594 
0.435629 -0.597902 -0.658032 
0.313137 -0.216836 -0.920179 
0.188735 -0.134746 -0.974874 
0.486827 0.573510 -0.629473 
0.494364 0.773417 -0.349808 
0.793454 0.365780 -0.440899 
0.384588 0.460940 -0.781263 
0.342865 0.874475 -0.294930 
0.274388 0.307677 -0.903151 
0.153580 0.159927 -0.976761 
0.744299 0.211173 -0.597523 
0.658070 0.528699 -0.495519 
0.496499 0.836562 -0.160589 
0.584048 0.171502 -0.769297 
0.174465 0.866826 -0.438185 
0.153715 0.468571 -0.864966 
0.543383 0.673144 -0.460753 
0.146062 0.942960 -0.252437 
0.372667 0.135267 -0.907322 
0.107578 0.318029 -0.943366 
0.615346 0.693131 -0.324172 
0.101595 0.617799 -0.772692 
0.156022 0.745778 -0.631315 
0.287264 0.615854 -0.715798 
0.848863 0.479642 -0.155853 
0.592222 0.386058 -0.677372 
0.364647 0.755548 -0.512271 
0.748879 0.545553 -0.322888 
0.122504 0.974809 -0.107036 
0.284693 0.935810 -0.133369 
0.700974 0.681858 -0.135005 
0.935966 0.143832 -0.269769 
0.456170 0.299235 -0.819059 
0.842987 0.403627 -0.301738 
0.861360 0.166439 -0.434708 
0.931461 0.288499 -0.161059 
0.883373 0.278717 -0.325641 
0.976455 0.126214 -0.115342 
0.709086 0.377157 -0.557650 
0.477258 0.462594 0.780578 
0.459050 0.801773 0.396525 
0.841335 0.411817 0.392402 
0.350400 0.316890 0.910329 
0.307489 0.899476 0.305783 
0.912086 0.336758 0.274745 
0.968368 0.167931 0.229507 
0.562812 0.632758 0.562083 
0.123373 0.482409 0.884418 
0.769978 0.168293 0.661349 
0.461719 0.162961 0.905951 
0.430441 0.877604 0.193543 
0.867749 0.470075 0.185540 
0.279877 0.144326 0.974847 
0.254584 0.948096 0.149652 
0.940436 0.320217 0.141563 
0.632464 0.162103 0.799071 
0.534090 0.294738 0.829499 
0.331388 0.630040 0.726049 
0.775709 0.616418 0.129881 
0.670434 0.718719 0.184566 
0.603202 0.496676 0.660568 
0.203972 0.752341 0.640933 
0.765678 0.576008 0.315656 
0.636347 0.683277 0.383164 
0.400314 0.719211 0.590037 
0.554567 0.798349 0.235375 
0.110916 0.977065 0.128191 
0.129629 0.126085 1.001816 
0.479106 0.596290 0.674204 
0.164106 0.613676 0.789260 
0.715171 0.507715 0.518828 
0.659324 0.352602 0.705136 
0.174444 0.311870 0.954669 
0.168731 0.941624 0.275314 
0.798799 0.321304 0.554283 
0.855505 0.141830 0.547075 
0.223369 0.860812 0.462894 
0.897871 0.233809 0.420665 
0.272236 0.479207 0.858648 
0.517923 -0.782849 0.351527 
0.346486 -0.370660 0.884696 
0.333311 -0.866570 0.365007 
0.165056 -0.461899 0.883547 
0.532418 -0.157177 0.866627 
0.429146 -0.877291 0.193909 
0.619953 -0.545325 0.593697 
0.284591 -0.172517 0.966317 
0.230494 -0.947791 0.181273 
0.916416 -0.372460 0.178912 
0.782245 -0.400205 0.516965 
0.739950 -0.655990 0.153343 
0.881832 -0.188338 0.479555 
0.961181 -0.181151 0.253101 
0.524551 -0.321268 0.820365 
0.575931 -0.673567 0.483297 
0.613185 -0.769273 0.172587 
0.714333 -0.634347 0.317766 
[...]
POINT_DATA 1108
SCALARS u float 1
LOOKUP_TABLE default
0.017371
0.017209
0.010394
0.010628
0.020944
0.020842
0.011581
0.011579
0.009883
0.009770
0.016083
0.016175
0.017602
0.017476
0.016853
0.016071
0.014604
0.013315
0.011883
0.009264
0.009185
0.010194
0.011756
0.013288
0.015116
0.016343
0.017445
0.017282
0.016612
0.015834
0.014682
0.013468
0.011807
0.009544
0.009486
0.010422
0.011726
0.013312
0.015140
0.016385
0.020024
0.018494
0.016483
0.014766
0.013707
0.012449
0.011587
0.009696
0.009900
0.011803
0.014476
0.017262
0.019631
0.020720
0.019978
0.018196
0.016593
0.014840
0.013636
0.012493
0.011617
0.009649
0.010112
0.011759
0.014510
0.017420
0.019546
0.020722
0.019379
0.024098
0.028619
0.031415
0.031818
0.029586
0.025311
0.017748
0.017648
0.019485
0.021269
0.021936
0.020221
0.018093
0.019257
0.023895
0.028387
0.031218
0.031928
0.029616
0.025271
0.017636
0.017570
0.019298
0.021171
0.021927
0.020312
0.018056
0.011719
0.011900
0.011783
0.011859
0.011857
0.011346
0.011338
0.011065
0.010587
0.009181
0.008539
0.008233
0.007932
0.008277
0.009290
0.009744
0.010354
0.011006
0.011760
0.011817
0.011687
0.011614
0.011542
0.011221
0.011280
0.011024
0.010636
0.009252
0.008814
0.008412
0.008110
0.008318
0.009424
0.009784
0.010354
0.011054
0.008866
0.007675
0.007292
0.008164
0.010240
0.012818
0.014663
0.015987
0.016444
0.015236
0.013699
0.012225
0.010945
0.010258
0.009856
0.010529
0.011128
0.010650
0.008758
0.007816
0.006727
0.008127
0.010263
0.012786
0.014672
0.015929
0.016450
0.015296
0.013832
0.012206
0.010895
0.010180
0.009874
0.010586
0.011146
0.010715
0.013286
0.016904
0.019934
0.021023
0.019795
0.017812
0.014697
0.011832
0.012209
0.021150
0.025744
0.029435
0.030809
0.029476
0.027189
0.023373
0.018076
0.013123
0.013408
0.016946
0.020005
0.020902
0.019772
0.017803
0.014617
0.011688
0.012247
0.021003
0.025648
0.029567
0.030529
0.029310
0.026941
0.023090
0.017963
0.013090
0.017707
0.011202
0.015500
0.017759
0.009824
0.018499
0.014237
0.014278
0.013719
0.019065
0.020124
0.010444
0.018232
0.019333
0.014378
0.010494
0.012027
0.015539
0.020980
0.012408
0.016878
0.013393
0.009493
0.016083
0.017331
0.009310
0.017496
0.012090
0.015953
0.017540
0.012059
0.015257
0.016735
0.013628
0.016736
0.009540
0.013629
0.016370
0.017253
0.020214
0.018276
0.021999
0.018868
0.016111
0.017646
0.017826
0.022458
0.021349
0.016183
0.020867
0.015113
0.016730
0.020169
0.013623
0.018210
0.017594
0.019240
0.015881
0.015694
0.017651
0.018593
0.021699
0.018098
0.020522
0.012204
0.013852
0.017540
0.019661
0.019776
0.020431
0.021888
0.018609
0.020736
0.017921
0.022263
0.027208
0.015322
0.022417
0.027646
0.011890
0.020335
0.020113
0.021522
0.020658
0.030008
0.030531
0.012823
0.018092
0.027212
0.011377
0.018314
0.032025
0.030341
0.021317
0.016414
0.015670
0.025932
0.016411
0.018800
0.018233
0.018778
0.014334
0.010194
0.023557
0.023372
0.019037
0.023696
0.029137
0.023854
0.010469
0.026998
0.027913
0.012779
0.024250
0.023910
0.012621
0.024266
0.011084
0.019526
0.030078
0.010010
0.021524
0.025833
0.009928
0.016608
0.023523
0.013040
0.025135
0.019674
0.027417
0.016465
0.011563
0.015648
0.022851
0.021886
0.013654
0.011580
0.014151
0.014826
0.018435
0.029074
0.012128
0.022528
0.019651
0.018144
0.026506
0.016830
0.016510
0.020109
0.030417
0.028020
0.020688
0.010211
0.020352
0.018397
0.021743
0.019117
0.016301
0.017622
0.017743
0.022339
0.021473
0.016356
0.021140
0.015119
0.016835
0.019861
0.013493
0.018285
0.017588
0.019224
0.015795
0.015676
0.017675
0.018241
0.021804
0.018137
0.020391
0.012198
0.013936
0.017390
0.019496
0.019773
0.020469
0.021792
0.018361
0.020594
0.017862
0.022405
0.026706
0.015150
0.022017
0.027677
0.011997
0.020185
0.020006
0.021582
0.020570
0.029979
0.030495
0.012890
0.017927
0.027106
0.011317
0.018155
0.031687
0.030274
0.021014
0.016163
0.015728
0.025816
0.015992
0.018706
0.018203
0.018705
0.014402
0.010304
0.023575
0.022859
0.019000
0.023548
0.028877
0.023931
0.010656
0.026748
0.027622
0.012859
0.024217
0.023899
0.012521
0.024209
0.011047
0.019557
0.030252
0.009887
0.021455
0.025829
0.009794
0.016581
0.023371
0.013009
0.025005
0.019554
0.027291
0.016513
0.011364
0.015552
0.022706
0.021754
0.013574
0.011607
0.014173
0.014843
0.018395
0.028984
0.012146
0.022475
0.019500
0.017921
0.026383
0.016669
0.016474
0.019988
0.030352
0.028081
0.020498
0.010082
0.017714
0.011199
0.015614
0.017840
0.009873
0.018505
0.014223
0.014304
0.013742
0.019157
0.020162
0.010121
0.018119
0.019325
0.014329
0.010342
0.011702
0.015569
0.021003
0.012321
0.016806
0.013338
0.009496
0.016116
0.017323
0.009166
0.017589
0.012250
0.015925
0.017665
0.012132
0.015345
0.016803
0.013757
0.016721
0.009423
0.013758
0.016438
0.017297
0.012880
0.019595
0.020667
0.014704
0.007619
0.014528
0.008128
0.021933
0.011688
0.009116
0.019799
0.026692
0.010802
0.014421
0.024555
0.008754
0.029213
0.013672
0.008764
0.013196
0.010121
0.007290
0.019078
0.009465
0.017234
0.016672
0.011494
0.008088
0.014370
0.009689
0.021834
0.023559
0.015891
0.015452
0.020257
0.008633
0.018174
0.028207
0.009385
0.026848
0.017506
0.029741
0.010884
0.023076
0.008892
0.019160
0.007913
0.009739
0.007523
0.012730
0.007375
0.017814
0.012346
0.009811
0.011841
0.011650
0.022559
0.025429
0.008286
0.026848
0.016489
0.024057
0.019042
0.019243
0.014146
0.014680
0.017606
0.013577
0.016275
0.012103
0.012000
0.013130
0.012107
0.021396
0.014277
0.013168
0.012898
0.021412
0.017235
0.011375
0.018309
0.017133
0.014105
0.014579
0.012832
0.018718
0.011734
0.019944
0.013327
0.014218
0.012006
0.014978
0.017100
0.016303
0.019938
0.020934
0.018610
0.020152
0.016881
0.011572
0.021067
0.013816
0.019127
0.011542
0.020012
0.015479
0.021613
0.015189
0.019959
0.016342
0.014236
0.015576
0.017152
0.018628
0.020789
0.012476
0.010787
0.017301
0.021718
0.015650
0.013747
0.013619
0.012126
0.011570
0.025885
0.016719
0.008868
0.025856
0.018322
0.023743
0.015570
0.008208
0.023122
0.014843
0.008994
0.011892
0.016280
0.012042
0.011818
0.017849
0.009762
0.008905
0.024682
0.028987
0.030429
0.025636
0.012451
0.019688
0.007957
0.021635
0.027355
0.019894
0.012450
0.020023
0.011880
0.015802
0.014026
0.018035
0.019845
0.019547
0.025776
0.010742
0.013954
0.010408
0.010568
0.011301
0.010285
0.021045
0.014537
0.023057
0.015385
0.028369
0.030372
0.028433
0.022424
0.021167
0.024492
0.012196
0.019366
0.021086
0.016708
0.009038
0.028917
0.009529
0.007464
0.009609
0.016312
0.012328
0.009254
0.011185
0.016015
0.010987
0.014358
0.011709
0.014118
0.009040
0.012149
0.008728
0.010957
0.010424
0.011586
0.007314
0.009566
0.018367
0.014809
0.015589
0.019689
0.012033
0.011678
0.009206
0.014248
0.011956
0.017439
0.013224
0.011935
0.010430
0.007962
0.008771
0.010478
0.012329
0.014297
0.012146
0.016391
0.011768
0.009675
0.009823
0.008667
0.010295
0.008018
0.009722
0.009792
0.013811
0.010251
0.014402
0.017898
0.019754
0.013167
0.018025
0.013327
0.016186
0.011905
0.013687
0.014326
0.010929
0.008773
0.018332
0.008656
0.008900
0.014690
0.022963
0.025328
0.016062
0.008170
0.015517
0.008408
0.012340
0.009695
0.014309
0.028295
0.029613
0.018269
0.009528
0.025108
0.017429
0.030348
0.010816
0.014234
0.011814
0.009687
0.007698
0.019629
0.028172
0.019348
0.012596
0.009190
0.008572
0.014777
0.025018
0.021095
0.024428
0.027040
0.020023
0.018953
0.023247
0.010994
0.019584
0.010855
0.028698
0.028337
0.021489
0.030436
0.013885
0.024407
0.011732
0.020344
0.008383
0.010768
0.010658
0.014382
0.009036
0.015389
0.019628
0.009601
0.012165
0.024462
0.015234
0.024690
0.010217
0.021388
0.019143
0.016279
0.012264
0.009198
0.011080
0.015989
0.010942
0.014365
0.008996
0.011677
0.014184
0.009090
0.008903
0.012163
0.008434
0.010425
0.011670
0.007258
0.009642
0.018360
0.014704
0.015466
0.019665
0.012013
0.011677
0.008002
0.014235
0.011850
0.017488
0.013218
0.011945
0.010764
0.010176
0.012579
0.014354
0.011991
0.016385
0.011624
0.009712
0.010054
0.008492
0.011456
0.007938
0.009880
0.009664
0.013819
0.010158
0.014454
0.017828
0.019686
0.013023
0.018004
0.013238
0.016195
0.011951
0.013681
0.010727
0.014400
0.010077
0.018261
0.007999
0.009080
0.008945
0.012854
0.019594
0.022330
0.014795
0.007663
0.014602
0.008227
0.011731
0.009250
0.026842
0.010811
0.027788
0.014387
0.024701
0.008748
0.028966
0.013656
0.008841
0.013293
0.010163
0.007379
0.019247
0.009480
0.026494
0.016651
0.011514
0.008192
0.014437
0.009774
0.021555
0.017584
0.023718
0.024341
0.016052
0.015454
0.020458
0.008610
0.018343
0.028342
0.009355
0.025753
0.017517
0.029776
0.010821
0.023235
0.008873
0.019343
0.007889
0.009840
0.007638
0.012775
0.007435
0.017944
0.012288
0.009901
0.011905
0.022870
0.011681
0.022612
0.008350
0.019650
0.018344
0.017202
0.020291
0.019495
0.014725
0.012644
0.013567
0.011819
0.016838
0.011945
0.012518
0.013868
0.016944
0.021016
0.021474
0.014332
0.017564
0.013712
0.021188
0.014573
0.015783
0.012715
0.011538
0.013332
0.013032
0.019426
0.019847
0.012888
0.011586
0.012069
0.011693
0.020466
0.019604
0.021664
0.020783
0.019447
0.016206
0.016967
0.013617
0.019698
0.017302
0.021182
0.013755
0.021456
0.016756
0.018477
0.015660
0.014801
0.014015
0.011703
0.014678
0.012512
0.018606
0.018910
0.013245
0.010840
0.019912
0.018224
0.017215
0.011510
0.014026
0.017189
0.013030
0.015159
0.015536
0.024216
0.017077
0.018648
0.021322
0.020857
0.007732
0.004013
0.015477
0.014462
0.017554
0.015555
0.025534
0.014819
0.015957
0.017145
0.025979
0.019773
0.003581
0.010013
0.012404
0.011923
0.015006
0.024097
0.020477
0.022939
0.019926
0.021330
0.017412
0.025823
0.024866
0.022441
0.021418
0.013909
0.026348
0.025854
0.010014
0.020428
0.009099
0.019789
0.029662
0.016377
0.021053
0.017279
0.028343
0.012000
0.012111
0.025600
0.013046
0.015322
0.023703
0.028555
0.019784
0.019221
0.017513
0.018998
0.013874
0.019355
0.022671
0.019366
0.019541
0.016889
0.018187
0.018692
0.019543
0.024641
0.029180
0.015055
0.020512
0.024268
0.024690
0.024738
0.027557
0.016710
0.020074
0.022720
0.027381
0.024574
0.023436
0.021555
0.025030
0.023626
0.029021
0.025900
0.020950
0.010952
0.012055
0.009508
0.015579
0.011155
0.010843
0.018881
0.021288
0.017990
0.018576
0.019859
0.020428
0.009766
0.007487
0.019376
0.005837
