# vtk DataFile Version 2.0
Unstructured Grid Example
ASCII
DATASET UNSTRUCTURED_GRID
POINTS 1108 float
0.997191 -0.001075 0.026515 
-0.997190 0.001043 -0.026265 
-0.001377 0.984617 0.004050 
0.001189 -0.984269 -0.004209 
0.026092 0.004078 1.018377 
-0.025981 -0.004227 -1.018229 
1.197318 -0.000748 0.017571 
-1.197361 0.000476 -0.017585 
-0.000976 1.185100 0.002747 
0.000898 -1.185318 -0.002980 
0.017428 0.002752 1.217295 
-0.017519 -0.002854 -1.217389 
0.977618 0.191921 0.026666 
0.920127 0.376966 0.025962 
0.826953 0.547147 0.024060 
0.702137 0.696280 0.021624 
0.550779 0.818355 0.017561 
0.378849 0.909071 0.013579 
0.192494 0.965158 0.009071 
-0.195178 0.966571 -0.000687 
-0.381355 0.911134 -0.005906 
-0.553678 0.820729 -0.011238 
-0.704624 0.698860 -0.015874 
-0.828422 0.549794 -0.019341 
-0.921436 0.379455 -0.022865 
-0.978183 0.193974 -0.024946 
-0.977603 -0.192135 -0.026445 
-0.920471 -0.377173 -0.025745 
-0.827625 -0.547449 -0.023885 
-0.702769 -0.696459 -0.021436 
-0.551110 -0.818343 -0.017790 
-0.379010 -0.909042 -0.013943 
-0.192512 -0.965255 -0.009009 
0.194804 -0.966143 0.000702 
0.381289 -0.910599 0.005835 
0.553561 -0.820531 0.011518 
0.704671 -0.698820 0.015807 
0.828462 -0.549727 0.019366 
0.921538 -0.379508 0.022921 
0.978169 -0.194057 0.025014 
0.025724 -0.190014 0.996869 
0.024573 -0.376161 0.936561 
0.022177 -0.546771 0.839951 
0.019194 -0.695819 0.711433 
0.015609 -0.817411 0.557017 
0.010880 -0.908200 0.381453 
0.006060 -0.964316 0.192113 
-0.003930 -0.967393 -0.200291 
-0.008869 -0.913935 -0.390016 
-0.013619 -0.825336 -0.565851 
-0.017566 -0.704602 -0.720511 
-0.020822 -0.555881 -0.847888 
-0.023597 -0.384819 -0.942537 
-0.025150 -0.198439 -1.000006 
-0.025690 0.190082 -0.996811 
-0.024296 0.376189 -0.936081 
-0.022370 0.546711 -0.839887 
-0.019308 0.695872 -0.711652 
-0.015562 0.817538 -0.557157 
-0.011061 0.908232 -0.381614 
-0.006290 0.964336 -0.192198 
0.003712 0.967380 0.200213 
0.008970 0.913789 0.390366 
0.013627 0.825411 0.565765 
0.017709 0.704492 0.720388 
0.021011 0.555808 0.848042 
0.023678 0.384675 0.942238 
0.025320 0.198288 0.999812 
0.988326 -0.000257 0.223889 
0.941059 0.000646 0.415468 
0.856370 0.001254 0.591782 
0.735893 0.001907 0.745795 
0.585572 0.002877 0.869950 
0.411964 0.003351 0.958480 
0.222519 0.003696 1.008097 
-0.169328 0.004063 0.988731 
-0.356069 0.004452 0.921271 
-0.528253 0.003894 0.819868 
-0.679492 0.003635 0.690027 
-0.805526 0.003409 0.534337 
-0.903428 0.002377 0.359422 
-0.968059 0.001779 0.170445 
-0.988361 0.000203 -0.223686 
-0.940844 -0.000628 -0.415229 
-0.855899 -0.001177 -0.591674 
-0.735571 -0.001896 -0.745658 
-0.585350 -0.002656 -0.870352 
-0.411979 -0.003275 -0.958534 
-0.222454 -0.003768 -1.008065 
0.169549 -0.004304 -0.988733 
0.356182 -0.004449 -0.921359 
0.528530 -0.004050 -0.820010 
0.679692 -0.003712 -0.690007 
0.805501 -0.003369 -0.534383 
0.903403 -0.002559 -0.359277 
0.968311 -0.001903 -0.170390 
1.182212 0.185657 0.017629 
1.137574 0.367259 0.017546 
1.064492 0.539641 0.016701 
0.965709 0.698182 0.015953 
0.843211 0.838956 0.014555 
0.699971 0.959462 0.012079 
0.540069 1.055949 0.010262 
0.367193 1.126622 0.007827 
0.185500 1.170173 0.005744 
-0.187383 1.171128 -0.000239 
-0.369035 1.128719 -0.003378 
-0.542181 1.058046 -0.005344 
-0.701903 0.961945 -0.007608 
-0.845442 0.841350 -0.010032 
-0.968093 0.699816 -0.012871 
-1.066124 0.541395 -0.014249 
-1.138923 0.368634 -0.015579 
-1.182896 0.186866 -0.016725 
-1.182318 -0.185646 -0.017709 
-1.137910 -0.367390 -0.017507 
-1.065028 -0.539816 -0.016737 
-0.966234 -0.698507 -0.015830 
-0.843232 -0.839191 -0.014112 
-0.699993 -0.959684 -0.012022 
-0.540210 -1.055926 -0.010143 
-0.367277 -1.126698 -0.007871 
-0.185519 -1.170098 -0.005768 
0.187164 -1.171025 0.000182 
0.368846 -1.128282 0.003286 
0.541890 -1.057844 0.005427 
0.701726 -0.961781 0.007774 
0.845317 -0.841458 0.010149 
0.968049 -0.699887 0.013121 
1.066127 -0.541460 0.014329 
1.138949 -0.368710 0.015594 
1.182875 -0.187010 0.016803 
-0.002278 -1.172190 -0.190941 
-0.004633 -1.131062 -0.374479 
-0.007310 -1.062558 -0.550064 
-0.009256 -0.967712 -0.713213 
-0.011819 -0.848455 -0.858910 
-0.014111 -0.707757 -0.984340 
-0.015111 -0.548098 -1.085581 
-0.016164 -0.374336 -1.159421 
-0.017070 -0.190844 -1.203584 
-0.017240 0.185047 -1.200830 
-0.016780 0.368062 -1.153665 
-0.015933 0.540618 -1.078231 
-0.014696 0.699108 -0.976099 
-0.012936 0.839901 -0.851087 
-0.010447 0.959877 -0.704740 
-0.008528 1.055600 -0.542860 
-0.006613 1.125669 -0.368546 
-0.003522 1.169499 -0.184900 
0.002401 1.172419 0.191071 
0.004593 1.130868 0.374681 
0.006768 1.062934 0.549440 
0.009209 0.967809 0.713216 
0.011820 0.848346 0.858961 
0.014364 0.707732 0.984003 
0.015237 0.548043 1.085494 
0.016297 0.374311 1.159185 
0.017144 0.190931 1.203512 
0.017417 -0.185198 1.200795 
0.016783 -0.367917 1.153972 
0.015914 -0.540793 1.078283 
0.014752 -0.699220 0.975821 
0.012858 -0.839942 0.850879 
0.010386 -0.959791 0.704573 
0.008491 -1.055488 0.542754 
0.006564 -1.125640 0.368398 
0.003450 -1.169434 0.184613 
-1.173654 0.001148 0.170948 
-1.122592 0.001265 0.352821 
-1.045558 0.001926 0.525431 
-0.945520 0.001905 0.685362 
-0.824125 0.002707 0.830586 
-0.682148 0.002714 0.956558 
-0.524405 0.002766 1.059901 
-0.352871 0.002680 1.140253 
-0.171030 0.002862 1.193286 
0.207147 0.002468 1.211153 
0.393183 0.002441 1.173794 
0.570885 0.002138 1.106073 
0.734134 0.001713 1.008345 
0.877189 0.001424 0.883555 
0.997885 0.001176 0.737133 
1.092259 0.000499 0.572314 
1.156882 0.000021 0.393782 
1.191704 -0.000318 0.206809 
1.173731 -0.001235 -0.170674 
1.122445 -0.001617 -0.352910 
1.045421 -0.001957 -0.525428 
0.945697 -0.002057 -0.685451 
0.824071 -0.002640 -0.830711 
0.682097 -0.002548 -0.956639 
0.524468 -0.002726 -1.060051 
0.353114 -0.002780 -1.140197 
0.171024 -0.002792 -1.193433 
-0.206990 -0.002421 -1.210992 
-0.392923 -0.002386 -1.173798 
-0.570899 -0.002246 -1.106307 
-0.734022 -0.002129 -1.007867 
-0.877037 -0.001408 -0.883352 
-0.997583 -0.001119 -0.736893 
-1.091856 -0.000427 -0.572085 
-1.156706 0.000017 -0.393692 
-1.191709 0.000277 -0.206754 
0.799525 -0.391550 -0.396410 
0.403599 -0.783858 -0.439050 
0.370480 -0.376253 -0.836004 
0.875718 -0.295308 -0.315975 
0.287173 -0.882670 -0.333461 
0.657884 -0.332813 -0.635026 
0.539260 -0.622654 -0.531329 
0.862771 -0.475130 -0.088664 
0.161409 -0.616595 -0.771475 
0.586396 -0.172028 -0.759010 
0.851338 -0.155944 -0.439266 
0.194036 -0.843058 -0.483525 
0.938508 -0.138032 -0.242690 
0.781132 -0.289601 -0.498875 
0.668809 -0.634961 -0.329922 
0.456855 -0.849954 -0.194722 
0.620624 -0.746865 -0.162329 
0.504669 -0.472936 -0.695818 
0.771464 -0.142417 -0.567295 
0.544317 -0.743026 -0.339695 
0.977650 -0.122641 -0.088968 
0.763327 -0.608903 -0.135317 
0.146049 -0.935796 -0.280121 
0.928353 -0.303622 -0.136761 
0.715757 -0.463367 -0.471272 
0.264513 -0.937526 -0.150752 
0.524774 -0.299315 -0.769907 
0.316711 -0.698532 -0.625412 
0.819212 -0.462658 -0.271727 
0.472538 -0.182429 -0.840388 
0.131500 -0.752285 -0.642146 
0.173303 -0.479736 -0.863110 
0.153368 -0.319372 -0.941180 
0.330942 -0.552603 -0.752612 
0.616512 -0.475547 -0.588572 
0.122148 -0.969949 -0.127283 
0.428789 -0.595906 -0.656410 
0.304394 -0.217395 -0.920712 
0.179973 -0.135785 -0.977652 
0.478681 0.568324 -0.624550 
0.488760 0.767341 -0.344544 
0.785367 0.362022 -0.433178 
0.375963 0.456711 -0.778087 
0.338554 0.868186 -0.290868 
0.265415 0.304708 -0.902717 
0.144631 0.157938 -0.979466 
0.735008 0.208332 -0.590408 
0.650193 0.523745 -0.488851 
0.492966 0.830872 -0.155072 
0.574427 0.168909 -0.764207 
0.169407 0.860796 -0.436255 
0.145471 0.465115 -0.865711 
0.536411 0.667226 -0.454979 
0.142857 0.936761 -0.250280 
0.363283 0.133027 -0.905820 
0.098906 0.315472 -0.946059 
0.609500 0.687639 -0.317684 
0.094144 0.613710 -0.773228 
0.149449 0.740635 -0.630239 
0.279481 0.610945 -0.713585 
0.844576 0.476088 -0.147583 
0.583034 0.381864 -0.671595 
0.358182 0.749487 -0.508316 
0.742308 0.540886 -0.315396 
0.120767 0.968910 -0.104798 
0.282091 0.929896 -0.129706 
0.697303 0.677176 -0.127720 
0.930074 0.142112 -0.261198 
0.446856 0.295827 -0.815305 
0.836464 0.400002 -0.293717 
0.853133 0.164150 -0.426657 
0.927100 0.286174 -0.152391 
0.876556 0.275898 -0.317322 
0.973003 0.124958 -0.106462 
0.700304 0.373117 -0.550645 
0.485873 0.464010 0.792267 
0.462359 0.799959 0.403823 
0.846483 0.411729 0.403263 
0.359814 0.318446 0.921674 
0.309334 0.896262 0.310971 
0.915423 0.336148 0.285107 
0.971235 0.167558 0.239897 
0.568814 0.632875 0.571939 
0.131262 0.483194 0.892153 
0.779193 0.169149 0.674512 
0.471930 0.164378 0.918668 
0.431125 0.873891 0.199289 
0.869222 0.468584 0.195012 
0.289558 0.145730 0.985673 
0.254833 0.943502 0.153658 
0.941450 0.319090 0.151265 
0.642709 0.163348 0.812796 
0.543886 0.296276 0.842396 
0.338400 0.630595 0.735059 
0.775872 0.613928 0.138321 
0.671205 0.716090 0.192509 
0.610919 0.497649 0.672095 
0.209685 0.751770 0.647602 
0.768871 0.574952 0.325159 
0.640096 0.682196 0.392129 
0.405882 0.718930 0.598421 
0.555847 0.795555 0.242420 
0.111159 0.972187 0.130645 
0.138868 0.127438 1.010323 
0.486220 0.597012 0.684496 
0.171131 0.614000 0.796660 
0.721572 0.508076 0.529798 
0.668244 0.353802 0.717907 
0.183341 0.313109 0.963776 
0.170391 0.937704 0.278973 
0.806622 0.321990 0.566443 
0.863746 0.142418 0.559555 
0.227090 0.858640 0.468223 
0.903900 0.233949 0.432185 
0.280572 0.480431 0.868311 
0.521234 -0.779993 0.356692 
0.355583 -0.369558 0.893933 
0.336535 -0.862619 0.368059 
0.173391 -0.459945 0.889576 
0.542658 -0.156457 0.879067 
0.430530 -0.873289 0.197208 
0.627003 -0.544448 0.602793 
0.294185 -0.171343 0.976238 
0.231994 -0.942802 0.182368 
0.918263 -0.371547 0.187576 
0.789231 -0.399713 0.527455 
0.741039 -0.653853 0.159911 
0.888968 -0.188037 0.490984 
0.964499 -0.180838 0.263110 
0.534047 -0.320643 0.831570 
0.581016 -0.671847 0.490306 
0.614413 -0.766302 0.177889 
0.717834 -0.632560 0.325179 
[...]
POINT_DATA 1108
SCALARS u float 1
LOOKUP_TABLE default
0.026685
0.026436
0.015967
0.016327
0.032174
0.032018
0.017790
0.017788
0.015182
0.015008
0.024707
0.024848
0.027040
0.026847
0.025889
0.024689
0.022435
0.020455
0.018255
0.014231
0.014110
0.015660
0.018060
0.020414
0.023221
0.025106
0.026800
0.026548
0.025519
0.024324
0.022554
0.020689
0.018138
0.014662
0.014573
0.016011
0.018013
0.020451
0.023258
0.025171
0.030760
0.028411
0.025321
0.022683
0.021056
0.019124
0.017800
0.014895
0.015209
0.018132
0.022238
0.026518
0.030157
0.031830
0.030690
0.027953
0.025490
0.022797
0.020947
0.019192
0.017847
0.014823
0.015534
0.018065
0.022290
0.026761
0.030027
0.031834
0.029771
0.037019
0.043965
0.048260
0.048879
0.045451
0.038883
0.027264
0.027110
0.029933
0.032673
0.033698
0.031064
0.027794
0.029583
0.036707
0.043608
0.047958
0.049048
0.045496
0.038822
0.027093
0.026991
0.029646
0.032523
0.033684
0.031204
0.027737
0.018004
0.018281
0.018102
0.018218
0.018214
0.017429
0.017417
0.016998
0.016264
0.014104
0.013118
0.012647
0.012186
0.012715
0.014271
0.014969
0.015906
0.016908
0.018066
0.018153
0.017954
0.017842
0.017731
0.017238
0.017328
0.016935
0.016339
0.014213
0.013540
0.012923
0.012459
0.012779
0.014478
0.015030
0.015906
0.016982
0.013619
0.011790
0.011202
0.012541
0.015731
0.019691
0.022525
0.024560
0.025261
0.023406
0.021045
0.018779
0.016813
0.015759
0.015141
0.016174
0.017095
0.016361
0.013454
0.012007
0.010334
0.012485
0.015767
0.019642
0.022539
0.024470
0.025270
0.023498
0.021248
0.018750
0.016737
0.015639
0.015169
0.016263
0.017123
0.016461
0.020410
0.025968
0.030623
0.032295
0.030410
0.027363
0.022577
0.018177
0.018755
0.032491
0.039548
0.045218
0.047329
0.045281
0.041768
0.035906
0.027768
0.020160
0.020598
0.026033
0.030733
0.032111
0.030374
0.027349
0.022454
0.017955
0.018813
0.032265
0.039401
0.045421
0.046899
0.045027
0.041388
0.035471
0.027594
0.020109
0.027202
0.017209
0.023812
0.027282
0.015092
0.028418
0.021871
0.021935
0.021076
0.029288
0.030915
0.016044
0.028008
0.029699
0.022087
0.016121
0.018476
0.023872
0.032229
0.019061
0.025928
0.020575
0.014583
0.024707
0.026625
0.014302
0.026878
0.018574
0.024508
0.026945
0.018525
0.023438
0.025709
0.020936
0.025710
0.014656
0.020937
0.025148
0.026504
0.031052
0.028076
0.033794
0.028985
0.024750
0.027108
0.027384
0.034500
0.032797
0.024860
0.032056
0.023216
0.025700
0.030984
0.020928
0.027974
0.027028
0.029556
0.024396
0.024109
0.027116
0.028563
0.033333
0.027803
0.031526
0.018748
0.021279
0.026946
0.030203
0.030380
0.031386
0.033624
0.028587
0.031855
0.027531
0.034201
0.041798
0.023538
0.034438
0.042470
0.018265
0.031239
0.030898
0.033063
0.031735
0.046099
0.046901
0.019699
0.027793
0.041803
0.017477
0.028133
0.049198
0.046610
0.032747
0.025216
0.024072
0.039838
0.025210
0.028880
0.028009
0.028846
0.022019
0.015660
0.036189
0.035905
0.029245
0.036402
0.044761
0.036645
0.016083
0.041474
0.042880
0.019631
0.037253
0.036730
0.019388
0.037278
0.017028
0.029997
0.046205
0.015378
0.033065
0.039685
0.015251
0.025514
0.036136
0.020032
0.038613
0.030223
0.042118
0.025294
0.017763
0.024038
0.035103
0.033621
0.020976
0.017789
0.021738
0.022775
0.028320
0.044663
0.018632
0.034608
0.030189
0.027873
0.040719
0.025854
0.025363
0.030891
0.046727
0.043044
0.031782
0.015687
0.031265
0.028262
0.033402
0.029368
0.025042
0.027071
0.027257
0.034317
0.032987
0.025126
0.032475
0.023226
0.025862
0.030511
0.020729
0.028090
0.027019
0.029532
0.024264
0.024082
0.027152
0.028022
0.033495
0.027862
0.031325
0.018739
0.021408
0.026715
0.029951
0.030375
0.031445
0.033478
0.028206
0.031637
0.027440
0.034418
0.041025
0.023274
0.033823
0.042518
0.018431
0.031009
0.030733
0.033154
0.031600
0.046054
0.046847
0.019802
0.027539
0.041640
0.017385
0.027890
0.048677
0.046508
0.032282
0.024830
0.024161
0.039659
0.024566
0.028736
0.027964
0.028734
0.022124
0.015830
0.036216
0.035116
0.029188
0.036174
0.044362
0.036763
0.016370
0.041091
0.042433
0.019755
0.037202
0.036713
0.019235
0.037190
0.016971
0.030043
0.046474
0.015188
0.032959
0.039678
0.015045
0.025472
0.035902
0.019985
0.038413
0.030039
0.041925
0.025367
0.017457
0.023892
0.034881
0.033418
0.020852
0.017831
0.021772
0.022801
0.028258
0.044526
0.018659
0.034527
0.029957
0.027530
0.040529
0.025607
0.025308
0.030706
0.046627
0.043138
0.031489
0.015487
0.027213
0.017203
0.023987
0.027406
0.015166
0.028427
0.021849
0.021974
0.021110
0.029430
0.030973
0.015547
0.027834
0.029688
0.022012
0.015887
0.017977
0.023917
0.032265
0.018927
0.025817
0.020490
0.014588
0.024757
0.026612
0.014081
0.027020
0.018818
0.024465
0.027137
0.018637
0.023573
0.025812
0.021133
0.025687
0.014475
0.021135
0.025252
0.026571
0.019786
0.030102
0.031749
0.022589
0.011705
0.022317
0.012487
0.033694
0.017955
0.014004
0.030416
0.041005
0.016595
0.022154
0.037722
0.013447
0.044878
0.021004
0.013464
0.020272
0.015549
0.011199
0.029307
0.014540
0.026475
0.025612
0.017657
0.012425
0.022075
0.014884
0.033541
0.036191
0.024412
0.023737
0.031118
0.013262
0.027920
0.043332
0.014418
0.041245
0.026892
0.045688
0.016720
0.035449
0.013660
0.029433
0.012156
0.014961
0.011556
0.019556
0.011329
0.027367
0.018966
0.015072
0.018190
0.017897
0.034656
0.039065
0.012729
0.041244
0.025330
0.036956
0.029252
0.029562
0.021731
0.022552
0.027046
0.020857
0.025001
0.018593
0.018434
0.020170
0.018599
0.032868
0.021932
0.020229
0.019814
0.032894
0.026477
0.017474
0.028126
0.026319
0.021668
0.022397
0.019712
0.028754
0.018026
0.030638
0.020472
0.021841
0.018444
0.023009
0.026269
0.025045
0.030630
0.032159
0.028588
0.030958
0.025933
0.017776
0.032363
0.021224
0.029383
0.017732
0.030743
0.023779
0.033202
0.023333
0.030661
0.025105
0.021870
0.023927
0.026349
0.028616
0.031936
0.019166
0.016571
0.026578
0.033364
0.024042
0.021119
0.020921
0.018627
0.017773
0.039764
0.025683
0.013624
0.039720
0.028146
0.036474
0.023919
0.012609
0.035520
0.022802
0.013817
0.018269
0.025010
0.018500
0.018155
0.027419
0.014997
0.013680
0.037917
0.044531
0.046744
0.039382
0.019127
0.030245
0.012224
0.033236
0.042024
0.030562
0.019125
0.030760
0.018251
0.024276
0.021547
0.027706
0.030486
0.030028
0.039597
0.016501
0.021437
0.015989
0.016234
0.017360
0.015800
0.032329
0.022332
0.035420
0.023635
0.043581
0.046658
0.043678
0.034449
0.032516
0.037624
0.018736
0.029750
0.032392
0.025667
0.013884
0.044422
0.014638
0.011466
0.014761
0.025059
0.018938
0.014217
0.017182
0.024602
0.016879
0.022057
0.017987
0.021689
0.013888
0.018664
0.013408
0.016832
0.016013
0.017799
0.011236
0.014695
0.028215
0.022750
0.023948
0.030247
0.018486
0.017939
0.014143
0.021888
0.018367
0.026789
0.020315
0.018335
0.016022
0.012231
0.013474
0.016096
0.018940
0.021964
0.018659
0.025180
0.018078
0.014863
0.015090
0.013315
0.015816
0.012317
0.014936
0.015043
0.021217
0.015747
0.022125
0.027495
0.030347
0.020228
0.027690
0.020473
0.024865
0.018289
0.021026
0.022007
0.016789
0.013477
0.028161
0.013298
0.013672
0.022566
0.035276
0.038910
0.024675
0.012551
0.023837
0.012916
0.018956
0.014893
0.021982
0.043468
0.045491
0.028065
0.014636
0.038571
0.026775
0.046621
0.016615
0.021866
0.018148
0.014881
0.011825
0.030155
0.043278
0.029722
0.019349
0.014117
0.013168
0.022700
0.038433
0.032406
0.037527
0.041539
0.030760
0.029115
0.035712
0.016888
0.030085
0.016676
0.044086
0.043531
0.033012
0.046756
0.021330
0.037494
0.018023
0.031252
0.012878
0.016542
0.016373
0.022094
0.013881
0.023640
0.030152
0.014750
0.018688
0.037579
0.023403
0.037929
0.015696
0.032857
0.029408
0.025008
0.018840
0.014130
0.017022
0.024562
0.016810
0.022067
0.013820
0.017939
0.021789
0.013965
0.013677
0.018685
0.012956
0.016016
0.017928
0.011149
0.014812
0.028204
0.022588
0.023759
0.030210
0.018454
0.017938
0.012293
0.021868
0.018204
0.026865
0.020306
0.018350
0.016535
0.015633
0.019324
0.022051
0.018420
0.025171
0.017857
0.014919
0.015445
0.013046
0.017599
0.012195
0.015178
0.014845
0.021229
0.015605
0.022204
0.027388
0.030241
0.020006
0.027658
0.020337
0.024879
0.018359
0.021017
0.016479
0.022121
0.015480
0.028053
0.012288
0.013948
0.013741
0.019747
0.030100
0.034303
0.022728
0.011773
0.022432
0.012638
0.018021
0.014210
0.041235
0.016608
0.042688
0.022102
0.037946
0.013439
0.044498
0.020978
0.013582
0.020421
0.015612
0.011336
0.029567
0.014563
0.040700
0.025579
0.017688
0.012585
0.022178
0.015014
0.033113
0.027013
0.036436
0.037393
0.024659
0.023741
0.031428
0.013227
0.028178
0.043539
0.014372
0.039562
0.026909
0.045742
0.016623
0.035694
0.013630
0.029715
0.012118
0.015117
0.011733
0.019625
0.011421
0.027566
0.018877
0.015210
0.018289
0.035133
0.017945
0.034737
0.012827
0.030186
0.028180
0.026425
0.031171
0.029948
0.022621
0.019423
0.020842
0.018157
0.025866
0.018350
0.019230
0.021304
0.026030
0.032285
0.032989
0.022017
0.026982
0.021065
0.032549
0.022387
0.024246
0.019534
0.017726
0.020481
0.020020
0.029842
0.030489
0.019799
0.017798
0.018540
0.017963
0.031440
0.030116
0.033281
0.031928
0.029875
0.024896
0.026065
0.020918
0.030260
0.026579
0.032541
0.021131
0.032961
0.025740
0.028384
0.024057
0.022737
0.021529
0.017978
0.022548
0.019220
0.028583
0.029049
0.020347
0.016652
0.030588
0.027996
0.026446
0.017682
0.021548
0.026406
0.020017
0.023288
0.023866
0.037201
0.026234
0.028647
0.032756
0.032041
0.011878
0.006166
0.023776
0.022216
0.026967
0.023895
0.039226
0.022766
0.024514
0.026338
0.039908
0.030376
0.005501
0.015382
0.019055
0.018317
0.023052
0.037017
0.031456
0.035240
0.030611
0.032767
0.026748
0.039669
0.038200
0.034474
0.032902
0.021368
0.040476
0.039716
0.015384
0.031382
0.013978
0.030399
0.045567
0.025159
0.032342
0.026544
0.043540
0.018435
0.018606
0.039326
0.020042
0.023538
0.036413
0.043867
0.030392
0.029528
0.026904
0.029185
0.021314
0.029733
0.034828
0.029751
0.030019
0.025945
0.027939
0.028714
0.030022
0.037854
0.044827
0.023127
0.031511
0.037281
0.037929
0.038003
0.042333
0.025670
0.030838
0.034903
0.042063
0.037751
0.036002
0.033113
0.038451
0.036295
0.044582
0.039787
0.032184
0.016824
0.018520
0.014606
0.023932
0.017137
0.016657
0.029005
0.032704
0.027636
0.028537
0.030508
0.031382
0.015003
0.011501
0.029765
0.008966
