# vtk DataFile Version 2.0
Unstructured Grid Example
ASCII
DATASET UNSTRUCTURED_GRID
POINTS 1108 float
1.009689 0.012557 -0.002061 
-1.009537 -0.012380 0.001938 
0.012506 0.987014 0.003422 
-0.012500 -0.986927 -0.003455 
-0.002048 0.003331 1.003817 
0.002091 -0.003464 -1.003358 
1.209095 0.008296 -0.001367 
-1.209087 -0.008381 0.001284 
0.008284 1.187725 0.002135 
-0.008458 -1.187613 -0.002254 
-0.001323 0.002220 1.203580 
0.001303 -0.002150 -1.203339 
0.994667 0.206734 -0.001273 
0.940676 0.393486 -0.000617 
0.849444 0.564858 0.000031 
0.724558 0.714027 0.000908 
0.571546 0.834367 0.001696 
0.397091 0.921650 0.002351 
0.208151 0.973163 0.002897 
-0.182779 0.963779 0.003706 
-0.370402 0.903944 0.003923 
-0.544380 0.810544 0.003912 
-0.698011 0.687289 0.003760 
-0.825637 0.537741 0.003530 
-0.922889 0.367081 0.003131 
-0.985149 0.181402 0.002595 
-0.994459 -0.206632 0.001202 
-0.940541 -0.393418 0.000674 
-0.849096 -0.564743 -0.000107 
-0.724241 -0.714060 -0.000960 
-0.571460 -0.834545 -0.001676 
-0.397145 -0.921890 -0.002319 
-0.208264 -0.973123 -0.002974 
0.182669 -0.963706 -0.003796 
0.370320 -0.904020 -0.003981 
0.544295 -0.810511 -0.004005 
0.697825 -0.687281 -0.003826 
0.825629 -0.537724 -0.003570 
0.922751 -0.366939 -0.003222 
0.985095 -0.181237 -0.002715 
-0.004541 -0.190181 0.983148 
-0.006727 -0.375970 0.924266 
-0.008743 -0.546634 0.829824 
-0.010325 -0.696096 0.703904 
-0.011557 -0.818512 0.551555 
-0.012301 -0.909878 0.378383 
-0.012811 -0.967022 0.191258 
-0.011848 -0.969580 -0.198260 
-0.010762 -0.915144 -0.385894 
-0.009170 -0.825504 -0.559067 
-0.007252 -0.703487 -0.711136 
-0.005209 -0.554096 -0.836077 
-0.002801 -0.383092 -0.928659 
-0.000279 -0.197206 -0.985183 
0.004387 0.190348 -0.982851 
0.006648 0.376026 -0.923871 
0.008685 0.546734 -0.829854 
0.010210 0.696222 -0.704025 
0.011421 0.818621 -0.551624 
0.012188 0.909984 -0.378454 
0.012693 0.967028 -0.191300 
0.011767 0.969562 0.198114 
0.010700 0.915080 0.385674 
0.009249 0.825203 0.559065 
0.007300 0.703343 0.711096 
0.005382 0.554033 0.836029 
0.002934 0.382946 0.928849 
0.000346 0.196996 0.985427 
0.989329 0.012869 0.193923 
0.930940 0.012838 0.382447 
0.837056 0.012116 0.556137 
0.711016 0.011159 0.708212 
0.557921 0.009814 0.833127 
0.383612 0.007767 0.926194 
0.194580 0.005462 0.983818 
-0.198540 0.000681 0.985424 
-0.388006 -0.001558 0.929227 
-0.562270 -0.004299 0.837039 
-0.715009 -0.006322 0.712541 
-0.840525 -0.008410 0.560527 
-0.933730 -0.010091 0.386724 
-0.990811 -0.011416 0.198027 
-0.989297 -0.012749 -0.194054 
-0.930985 -0.012814 -0.382578 
-0.837140 -0.012009 -0.556263 
-0.711108 -0.011102 -0.708271 
-0.558132 -0.009618 -0.832996 
-0.383545 -0.007517 -0.925921 
-0.194396 -0.005468 -0.983361 
0.198723 -0.000972 -0.985233 
0.387811 0.001584 -0.929022 
0.562241 0.004197 -0.836912 
0.715160 0.006370 -0.712576 
0.840740 0.008448 -0.560581 
0.933791 0.010282 -0.386806 
0.990811 0.011660 -0.198223 
1.198374 0.196183 -0.001001 
1.157157 0.379902 -0.000553 
1.086287 0.554492 -0.000118 
0.987328 0.714844 0.000299 
0.863501 0.856657 0.000516 
0.718398 0.976329 0.001051 
0.555780 1.070977 0.001370 
0.380030 1.138391 0.001664 
0.196003 1.177461 0.002008 
-0.178750 1.168979 0.002332 
-0.360863 1.122254 0.002628 
-0.533499 1.048944 0.002613 
-0.693890 0.951567 0.002770 
-0.838329 0.831404 0.002490 
-0.962710 0.690379 0.002315 
-1.064408 0.532356 0.002213 
-1.140973 0.360624 0.001974 
-1.189843 0.178905 0.001726 
-1.198137 -0.196054 0.000972 
-1.156981 -0.379642 0.000421 
-1.086097 -0.554418 0.000062 
-0.987086 -0.714558 -0.000316 
-0.863636 -0.856386 -0.000553 
-0.718530 -0.976290 -0.001128 
-0.555860 -1.071128 -0.001390 
-0.380059 -1.138522 -0.001727 
-0.196009 -1.177405 -0.001937 
0.178727 -1.169000 -0.002376 
0.360742 -1.122275 -0.002618 
0.533455 -1.048926 -0.002679 
0.693832 -0.951538 -0.002794 
0.838232 -0.831297 -0.002540 
0.962579 -0.690278 -0.002352 
1.064314 -0.532235 -0.002253 
1.140844 -0.360549 -0.002010 
1.189791 -0.178916 -0.001766 
-0.008032 -1.174357 -0.189204 
-0.007491 -1.132478 -0.372091 
-0.006793 -1.062702 -0.546271 
-0.006092 -0.966541 -0.707321 
-0.004874 -0.846146 -0.851410 
-0.003575 -0.704448 -0.974460 
-0.002471 -0.545110 -1.073485 
-0.001242 -0.371830 -1.145875 
-0.000127 -0.189067 -1.189589 
0.002793 0.184500 -1.187165 
0.003876 0.366962 -1.141584 
0.004952 0.539227 -1.067753 
0.005909 0.698099 -0.967714 
0.006662 0.839272 -0.844539 
0.007687 0.959721 -0.700580 
0.007942 1.056406 -0.540084 
0.008229 1.127861 -0.366935 
0.008417 1.171893 -0.184600 
0.008041 1.174387 0.189265 
0.007505 1.132419 0.372005 
0.006764 1.062249 0.546447 
0.006232 0.966219 0.707289 
0.004964 0.845994 0.851292 
0.003360 0.704426 0.974517 
0.002499 0.545103 1.073485 
0.001301 0.371859 1.146018 
0.000134 0.189181 1.189815 
-0.002680 -0.184921 1.187549 
-0.003871 -0.366842 1.141821 
-0.005053 -0.539344 1.067773 
-0.005954 -0.698077 0.967725 
-0.006650 -0.839198 0.844434 
-0.007748 -0.959634 0.700518 
-0.007999 -1.056286 0.540024 
-0.008291 -1.127795 0.366928 
-0.008462 -1.171874 0.184568 
-1.194803 -0.007809 0.190213 
-1.150911 -0.007291 0.374281 
-1.078350 -0.006346 0.549141 
-0.979241 -0.005601 0.710176 
-0.855805 -0.004197 0.853858 
-0.711273 -0.002972 0.976698 
-0.549942 -0.001823 1.074983 
-0.374288 -0.000487 1.146225 
-0.190059 0.000787 1.189497 
0.187337 0.003518 1.188147 
0.371216 0.004822 1.143760 
0.546057 0.005801 1.071283 
0.707453 0.006433 0.972649 
0.851720 0.007462 0.850084 
0.975231 0.008215 0.706645 
1.075146 0.008331 0.545595 
1.148378 0.008562 0.371259 
1.193376 0.008564 0.187309 
1.194924 0.007797 -0.190241 
1.151064 0.007262 -0.374374 
1.078627 0.006329 -0.549205 
0.979420 0.005501 -0.710255 
0.855839 0.004207 -0.853989 
0.711173 0.003096 -0.976691 
0.549868 0.001732 -1.074739 
0.374495 0.000406 -1.146015 
0.189858 -0.000498 -1.189334 
-0.187358 -0.003399 -1.187788 
-0.371184 -0.005066 -1.143296 
-0.545944 -0.005763 -1.071157 
-0.707221 -0.006732 -0.972703 
-0.851727 -0.007397 -0.850164 
-0.975290 -0.008116 -0.706711 
-1.075223 -0.008233 -0.545661 
-1.148432 -0.008480 -0.371303 
-1.193350 -0.008511 -0.187339 
0.818975 -0.383981 -0.418194 
0.409145 -0.779490 -0.445547 
0.394073 -0.372433 -0.842561 
0.895528 -0.285859 -0.340315 
0.286348 -0.879696 -0.337399 
0.683686 -0.326863 -0.653633 
0.552967 -0.618002 -0.542865 
0.866591 -0.464522 -0.111809 
0.175715 -0.614338 -0.767615 
0.617095 -0.165210 -0.776459 
0.879811 -0.145921 -0.464745 
0.197859 -0.841185 -0.483319 
0.960636 -0.126389 -0.269546 
0.806608 -0.282023 -0.521541 
0.677457 -0.627931 -0.346530 
0.453558 -0.843772 -0.204679 
0.619782 -0.738267 -0.178086 
0.525416 -0.468797 -0.707184 
0.803217 -0.133443 -0.591229 
0.549421 -0.736980 -0.351236 
0.992747 -0.110122 -0.116437 
0.765733 -0.599334 -0.155235 
0.141625 -0.935140 -0.280444 
0.940137 -0.292487 -0.162318 
0.734831 -0.457289 -0.490164 
0.257182 -0.934085 -0.155506 
0.551782 -0.294254 -0.783919 
0.328069 -0.695178 -0.628643 
0.832049 -0.454046 -0.293259 
0.501892 -0.176887 -0.853103 
0.140544 -0.750728 -0.638594 
0.192488 -0.477377 -0.859308 
0.176575 -0.316722 -0.936199 
0.348273 -0.549220 -0.756764 
0.636854 -0.470803 -0.603888 
0.112530 -0.969509 -0.128498 
0.444451 -0.592126 -0.664406 
0.331347 -0.213551 -0.924329 
0.207222 -0.132556 -0.974482 
0.515349 0.584013 -0.641019 
0.519903 0.785037 -0.359735 
0.824075 0.380180 -0.459475 
0.411552 0.467976 -0.789742 
0.364905 0.882030 -0.300964 
0.299089 0.311466 -0.906986 
0.175403 0.161117 -0.975137 
0.773932 0.223078 -0.615968 
0.688121 0.542562 -0.511216 
0.518593 0.847975 -0.169879 
0.611698 0.180352 -0.784104 
0.196357 0.869159 -0.439238 
0.177929 0.469829 -0.864279 
0.571487 0.685958 -0.473193 
0.164957 0.944534 -0.253381 
0.397035 0.140377 -0.914904 
0.130439 0.318197 -0.940100 
0.642560 0.707278 -0.337476 
0.125374 0.617735 -0.770390 
0.179740 0.747332 -0.631480 
0.312993 0.621013 -0.720423 
0.874701 0.495555 -0.173063 
0.622154 0.397301 -0.692482 
0.390087 0.763783 -0.519400 
0.778135 0.561229 -0.339440 
0.138581 0.975579 -0.108044 
0.303306 0.941223 -0.137828 
0.725354 0.696842 -0.148872 
0.960057 0.157443 -0.289348 
0.483410 0.306934 -0.830387 
0.871794 0.419067 -0.319934 
0.889860 0.179525 -0.454415 
0.955497 0.303376 -0.179748 
0.911361 0.293280 -0.344967 
0.995845 0.139976 -0.134511 
0.739899 0.390380 -0.575236 
0.469910 0.465790 0.763880 
0.466545 0.807930 0.386857 
0.846356 0.422431 0.375012 
0.337736 0.319136 0.894168 
0.317060 0.903406 0.299530 
0.920664 0.348962 0.256867 
0.975246 0.180811 0.210152 
0.564433 0.638532 0.548394 
0.113892 0.481763 0.875192 
0.760959 0.177178 0.639497 
0.446501 0.167607 0.886003 
0.443538 0.884928 0.185905 
0.881874 0.483300 0.169216 
0.263718 0.146872 0.958624 
0.267275 0.951758 0.145124 
0.954019 0.333724 0.123711 
0.619212 0.169003 0.776634 
0.522466 0.299178 0.809941 
0.327558 0.631424 0.714254 
0.792894 0.629639 0.115636 
0.685637 0.730232 0.172152 
0.600146 0.502310 0.643900 
0.202752 0.752368 0.632732 
0.775739 0.586996 0.300799 
0.644527 0.692089 0.370213 
0.401412 0.722527 0.579117 
0.567546 0.807571 0.225369 
0.122863 0.976963 0.126703 
0.112721 0.127251 0.990150 
0.476581 0.600128 0.660021 
0.158323 0.613189 0.780259 
0.716739 0.515907 0.502463 
0.652355 0.359109 0.685573 
0.161144 0.312321 0.942667 
0.177834 0.942761 0.271663 
0.795987 0.330222 0.535089 
0.848937 0.152214 0.525613 
0.227752 0.862079 0.456779 
0.898423 0.244843 0.400929 
0.263116 0.479696 0.845867 
0.499983 -0.766986 0.335994 
0.324365 -0.361394 0.865418 
0.314957 -0.853973 0.353523 
0.142536 -0.455469 0.870352 
0.512539 -0.147933 0.843343 
0.414012 -0.863575 0.182600 
0.599003 -0.529417 0.571626 
0.264214 -0.166619 0.948690 
0.214991 -0.938212 0.174444 
0.911075 -0.357896 0.159528 
0.764988 -0.384708 0.493712 
0.729226 -0.640125 0.136725 
0.870026 -0.174720 0.456625 
0.958317 -0.167326 0.232352 
0.502930 -0.309809 0.797217 
0.556433 -0.657152 0.464343 
0.599857 -0.753378 0.157758 
0.698753 -0.617846 0.298974 
[...]
POINT_DATA 1108
SCALARS u float 1
LOOKUP_TABLE default
0.015994
0.015747
0.018350
0.018414
0.005465
0.005258
0.012386
0.012428
0.014962
0.015168
0.004416
0.004180
0.018163
0.019980
0.020232
0.018795
0.016325
0.014768
0.015398
0.021319
0.023741
0.024050
0.022127
0.019089
0.015944
0.014600
0.017934
0.019831
0.019871
0.018516
0.016271
0.014781
0.015527
0.021457
0.023730
0.024134
0.022223
0.019114
0.016110
0.014760
0.007092
0.009512
0.012609
0.015431
0.017821
0.019127
0.019190
0.016612
0.014228
0.011485
0.009052
0.007109
0.005555
0.004889
0.006783
0.009408
0.012495
0.015239
0.017638
0.018961
0.019098
0.016540
0.014173
0.011706
0.009130
0.007219
0.005777
0.005030
0.015491
0.014654
0.013354
0.011876
0.010227
0.008157
0.006269
0.005821
0.007704
0.009715
0.011487
0.013315
0.014669
0.015474
0.015364
0.014653
0.013299
0.011858
0.010070
0.007837
0.006084
0.005824
0.007432
0.009578
0.011634
0.013507
0.014864
0.015693
0.015668
0.018310
0.019644
0.019049
0.017045
0.014209
0.011217
0.009791
0.011529
0.018705
0.021624
0.023343
0.022573
0.020086
0.017177
0.013510
0.010390
0.010101
0.015398
0.018025
0.019442
0.018697
0.017038
0.014322
0.011322
0.009791
0.011559
0.018704
0.021660
0.023387
0.022630
0.020233
0.017332
0.013661
0.010475
0.010075
0.013596
0.011619
0.009521
0.007703
0.006143
0.005179
0.004950
0.004877
0.004567
0.004684
0.005479
0.007587
0.009850
0.012082
0.014317
0.015783
0.016204
0.016074
0.013584
0.011663
0.009846
0.007987
0.006221
0.005079
0.004964
0.005033
0.004818
0.004520
0.005579
0.007566
0.009890
0.012167
0.014438
0.015926
0.016292
0.016119
0.012606
0.012575
0.011950
0.011209
0.009949
0.008863
0.007953
0.006069
0.004932
0.004589
0.005442
0.006290
0.007013
0.008264
0.009415
0.010263
0.011139
0.011829
0.012696
0.012701
0.012178
0.011329
0.010048
0.008834
0.007707
0.006017
0.004657
0.004272
0.005469
0.006193
0.007238
0.008224
0.009366
0.010233
0.011111
0.011772
0.013197
0.016401
0.006832
0.013340
0.018120
0.010115
0.013619
0.016989
0.008244
0.009129
0.012788
0.014514
0.014220
0.011799
0.017296
0.021686
0.021468
0.009470
0.011650
0.018505
0.014745
0.019072
0.017636
0.014642
0.013084
0.020863
0.008193
0.011897
0.015224
0.007846
0.010714
0.006122
0.005003
0.008717
0.011190
0.019325
0.010814
0.005926
0.005253
0.013564
0.015091
0.017706
0.011208
0.014692
0.008699
0.006664
0.014896
0.016370
0.015558
0.011772
0.015528
0.010271
0.015299
0.016615
0.008419
0.008304
0.016816
0.012590
0.014119
0.011915
0.020193
0.013939
0.013732
0.018556
0.016717
0.015050
0.018619
0.017111
0.010861
0.019046
0.016518
0.019244
0.018287
0.017465
0.016161
0.011666
0.014490
0.018201
0.008683
0.013611
0.018537
0.017261
0.014906
0.007423
0.013558
0.009054
0.014705
0.019890
0.006782
0.014346
0.019225
0.011371
0.010854
0.010790
0.019536
0.018065
0.014396
0.010393
0.018603
0.017045
0.012723
0.016187
0.015745
0.005599
0.012939
0.008750
0.016667
0.013711
0.006577
0.014036
0.015965
0.014579
0.012269
0.016424
0.008744
0.024945
0.012605
0.024176
0.012409
0.010617
0.025154
0.019868
0.008506
0.023257
0.016691
0.017347
0.022106
0.014351
0.014932
0.013407
0.022803
0.024612
0.022359
0.006534
0.009067
0.020199
0.021726
0.022985
0.019258
0.021100
0.013381
0.022799
0.017464
0.020518
0.018880
0.015875
0.020300
0.016352
0.015961
0.011976
0.010364
0.016282
0.020821
0.013646
0.015091
0.017251
0.011215
0.014718
0.008928
0.006826
0.014797
0.016297
0.015553
0.011859
0.015651
0.010283
0.015105
0.016663
0.008595
0.008294
0.016629
0.012676
0.014247
0.012078
0.019908
0.013937
0.013876
0.018609
0.016823
0.015073
0.018294
0.016848
0.010937
0.018820
0.016188
0.018915
0.017885
0.017275
0.015990
0.011563
0.014514
0.018177
0.008386
0.013428
0.018548
0.017165
0.014785
0.007222
0.013622
0.008774
0.014659
0.019521
0.006624
0.014426
0.019094
0.011438
0.010828
0.010822
0.019276
0.017729
0.014221
0.010454
0.018670
0.016942
0.012686
0.016140
0.015792
0.005358
0.012924
0.008663
0.016456
0.013653
0.006387
0.013938
0.015921
0.014632
0.012217
0.016620
0.008799
0.024745
0.012422
0.023934
0.012072
0.010533
0.024997
0.019658
0.008199
0.023119
0.016541
0.017202
0.021980
0.014247
0.014809
0.013259
0.022585
0.024497
0.022135
0.006235
0.008850
0.019961
0.021495
0.022788
0.019133
0.020835
0.013261
0.022546
0.017161
0.020335
0.018719
0.015714
0.020085
0.016195
0.015748
0.011943
0.010184
0.016134
0.020722
0.013146
0.016624
0.006949
0.013235
0.018377
0.010092
0.013702
0.016890
0.008375
0.009146
0.012621
0.014815
0.014066
0.011720
0.017236
0.021667
0.021134
0.009556
0.011557
0.018297
0.014542
0.019064
0.017595
0.014468
0.013054
0.020820
0.008245
0.012100
0.015192
0.007956
0.010879
0.006281
0.005098
0.008907
0.011224
0.019164
0.010997
0.006018
0.005336
0.020672
0.016178
0.010101
0.011833
0.023135
0.010131
0.021768
0.007298
0.009817
0.020690
0.004797
0.010279
0.017483
0.014057
0.009135
0.018566
0.006998
0.010806
0.023492
0.017870
0.016617
0.024359
0.009487
0.019375
0.008979
0.019074
0.011977
0.023253
0.010046
0.019202
0.012805
0.013243
0.016401
0.019018
0.015703
0.022997
0.014142
0.008394
0.015479
0.009847
0.012393
0.007889
0.013465
0.011234
0.020658
0.010837
0.021790
0.020697
0.022267
0.014649
0.024149
0.017145
0.021569
0.017951
0.010482
0.020095
0.013885
0.008601
0.019709
0.006182
0.006062
0.005465
0.014841
0.011083
0.007280
0.009774
0.018095
0.010642
0.017331
0.006400
0.011010
0.016874
0.005116
0.013426
0.008800
0.007577
0.011332
0.014273
0.009413
0.007129
0.017679
0.012485
0.012528
0.018940
0.012721
0.015205
0.006060
0.013009
0.009955
0.018887
0.013329
0.014941
0.009479
0.008600
0.011981
0.013472
0.010368
0.017091
0.009653
0.011106
0.012250
0.006937
0.011180
0.009233
0.011027
0.009111
0.015771
0.009906
0.016905
0.015501
0.017961
0.010677
0.019047
0.011242
0.015473
0.014590
0.013310
0.009249
0.014761
0.008556
0.015752
0.007575
0.005319
0.006167
0.013254
0.013152
0.009544
0.007596
0.016010
0.006593
0.016242
0.009041
0.005317
0.013635
0.010683
0.017179
0.008044
0.008081
0.019184
0.006534
0.012789
0.007783
0.014331
0.010848
0.008166
0.012024
0.018426
0.006130
0.008460
0.013926
0.006646
0.013382
0.016261
0.005343
0.011814
0.010347
0.014838
0.015220
0.012168
0.016631
0.009775
0.018068
0.006114
0.009042
0.014496
0.007155
0.015961
0.008517
0.018042
0.008072
0.017742
0.011736
0.009278
0.008532
0.014626
0.015551
0.011966
0.014176
0.004558
0.010331
0.016954
0.011184
0.009956
0.010192
0.010082
0.009559
0.006961
0.011849
0.016915
0.004946
0.008817
0.004683
0.009134
0.005329
0.010548
0.007069
0.016430
0.010238
0.018900
0.004863
0.014148
0.010635
0.021228
0.007496
0.005863
0.006996
0.009014
0.004532
0.010331
0.020661
0.009103
0.005916
0.009859
0.004735
0.009577
0.014672
0.014233
0.019674
0.010480
0.015396
0.011900
0.008904
0.009280
0.004791
0.005495
0.017738
0.013093
0.018337
0.007776
0.020205
0.005316
0.012796
0.004170
0.010229
0.006951
0.008764
0.005567
0.008292
0.006560
0.009296
0.010822
0.004773
0.012401
0.006815
0.018120
0.008373
0.016581
0.016267
0.015730
0.012212
0.007964
0.017254
0.009629
0.016210
0.009052
0.016150
0.009918
0.008324
0.012088
0.010159
0.007898
0.007648
0.012250
0.006120
0.008114
0.013797
0.017677
0.018901
0.013099
0.009003
0.013415
0.007016
0.014189
0.018297
0.009914
0.010650
0.013673
0.010124
0.006150
0.005233
0.011868
0.010019
0.012108
0.013696
0.011198
0.016686
0.006748
0.010015
0.009472
0.007835
0.009103
0.006237
0.014256
0.009029
0.015569
0.008993
0.016270
0.017790
0.018378
0.011417
0.013203
0.015438
0.011985
0.014046
0.014488
0.010878
0.006228
0.015999
0.005112
0.004223
0.006993
0.011769
0.015501
0.004959
0.008877
0.004684
0.009202
0.017517
0.005249
0.010608
0.017159
0.006946
0.016506
0.010053
0.004838
0.014258
0.010200
0.021430
0.007554
0.005882
0.006951
0.009081
0.004518
0.010466
0.013584
0.009048
0.005804
0.009935
0.004641
0.009616
0.014712
0.010256
0.014796
0.011717
0.008740
0.009306
0.004743
0.005511
0.018095
0.012571
0.018270
0.007686
0.020156
0.005210
0.012800
0.004167
0.010307
0.007002
0.008848
0.005531
0.008346
0.006485
0.009269
0.010824
0.004535
0.006632
0.012264
0.018835
0.008429
0.013707
0.020925
0.019894
0.020880
0.016387
0.009263
0.011971
0.023328
0.010248
0.021913
0.009873
0.020765
0.010265
0.017662
0.009192
0.014224
0.009229
0.018771
0.007120
0.010580
0.023662
0.018074
0.016760
0.024487
0.009546
0.019554
0.006582
0.019274
0.012121
0.023372
0.010068
0.019289
0.012953
0.007852
0.005205
0.012721
0.016541
0.019238
0.015719
0.023189
0.014308
0.008489
0.015638
0.009409
0.012159
0.007916
0.013622
0.011327
0.020859
0.010969
0.022009
0.020915
0.022385
0.014810
0.024317
0.017304
0.021755
0.018029
0.010500
0.013841
0.020264
0.006128
0.019872
0.004948
0.004413
0.008893
0.014738
0.016955
0.009984
0.006724
0.010646
0.006400
0.017288
0.013467
0.005024
0.015658
0.015724
0.012233
0.014338
0.012537
0.009702
0.018715
0.013820
0.007702
0.009045
0.011652
0.007028
0.009930
0.007461
0.015498
0.011711
0.012597
0.005771
0.011060
0.005731
0.016833
0.015904
0.014597
0.013207
0.013476
0.008837
0.009931
0.015767
0.010748
0.017618
0.015788
0.017799
0.012346
0.012257
0.010540
0.010161
0.008398
0.009014
0.009044
0.010082
0.006771
0.010970
0.010413
0.004804
0.013400
0.011875
0.012932
0.018580
0.011212
0.018983
0.014467
0.017727
0.005432
0.012172
0.016838
0.010073
0.012628
0.005022
0.006490
0.017226
0.007141
0.004594
0.012991
0.016973
0.013154
0.013342
0.015909
0.016622
0.012284
0.014999
0.009892
0.008439
0.022774
0.018961
0.018338
0.016927
0.016862
0.018075
0.016717
0.017300
0.017481
0.014880
0.006406
0.009533
0.013520
0.021746
0.025431
0.015045
0.017958
0.021928
0.017802
0.016829
0.013936
0.010805
0.010377
0.020350
0.015092
0.010913
0.016513
0.016709
0.006741
0.017521
0.017179
0.012665
0.015782
0.005014
0.007038
0.012605
0.009769
0.021096
0.018190
0.015833
0.018063
0.007586
0.007240
0.005651
0.012824
0.019892
0.005979
0.009206
0.016321
0.018335
0.017740
0.016499
0.006183
0.010499
0.014842
0.008033
0.006650
0.014813
0.015450
0.009195
0.011965
0.014941
0.017053
0.015792
0.018716
0.019545
0.024280
0.021070
0.022297
0.013555
0.019115
0.023306
0.016237
0.010556
0.012963
0.008927
0.005961
0.006831
0.019590
0.009516
0.016368
0.006459
