# vtk DataFile Version 2.0
Unstructured Grid Example
ASCII
DATASET UNSTRUCTURED_GRID
POINTS 1108 float
1.000970 0.000371 -0.009160 
-1.000971 -0.000360 0.009074 
0.000476 1.005314 -0.001399 
-0.000411 -1.005434 0.001454 
-0.009014 -0.001409 0.993651 
0.008975 0.001460 -0.993703 
1.200927 0.000258 -0.006070 
-1.200912 -0.000165 0.006075 
0.000337 1.205147 -0.000949 
-0.000310 -1.205072 0.001030 
-0.006021 -0.000951 1.194025 
0.006052 0.000986 -1.193993 
0.981879 0.196185 -0.009212 
0.925176 0.384658 -0.008969 
0.833030 0.558480 -0.008312 
0.708824 0.710847 -0.007470 
0.557226 0.836000 -0.006067 
0.384008 0.928995 -0.004691 
0.195987 0.986184 -0.003134 
-0.195060 0.985696 0.000237 
-0.383142 0.928283 0.002040 
-0.556224 0.835180 0.003882 
-0.707965 0.709956 0.005484 
-0.832522 0.557566 0.006681 
-0.924724 0.383799 0.007899 
-0.981684 0.195476 0.008618 
-0.981885 -0.196111 0.009136 
-0.925057 -0.384587 0.008894 
-0.832798 -0.558376 0.008251 
-0.708605 -0.710785 0.007405 
-0.557111 -0.836004 0.006146 
-0.383953 -0.929005 0.004817 
-0.195981 -0.986150 0.003112 
0.195189 -0.985844 -0.000243 
0.383165 -0.928467 -0.002016 
0.556264 -0.835249 -0.003979 
0.707948 -0.709969 -0.005461 
0.832509 -0.557589 -0.006690 
0.924689 -0.383780 -0.007918 
0.981689 -0.195447 -0.008641 
-0.008887 -0.196844 0.975229 
-0.008489 -0.384937 0.919499 
-0.007661 -0.558610 0.828540 
-0.006631 -0.711006 0.705612 
-0.005392 -0.836326 0.555070 
-0.003759 -0.929296 0.383108 
-0.002094 -0.986475 0.196119 
0.001358 -0.985412 -0.193294 
0.003064 -0.927315 -0.380150 
0.004705 -0.833588 -0.552019 
0.006068 -0.707972 -0.702476 
0.007193 -0.555463 -0.825798 
0.008152 -0.381946 -0.917434 
0.008688 -0.193933 -0.974145 
0.008875 0.196821 -0.975249 
0.008393 0.384927 -0.919664 
0.007728 0.558631 -0.828562 
0.006670 0.710988 -0.705536 
0.005376 0.836282 -0.555022 
0.003821 0.929285 -0.383053 
0.002173 0.986468 -0.196089 
-0.001282 0.985416 0.193321 
-0.003099 0.927365 0.380029 
-0.004708 0.833563 0.552049 
-0.006118 0.708010 0.702519 
-0.007258 0.555488 0.825745 
-0.008180 0.381996 0.917537 
-0.008747 0.193986 0.974212 
0.978180 0.000089 0.185141 
0.917945 -0.000223 0.371358 
0.822867 -0.000433 0.543061 
0.697162 -0.000659 0.693742 
0.545206 -0.000994 0.818176 
0.372568 -0.001158 0.911926 
0.185615 -0.001277 0.971350 
-0.203990 -0.001404 0.978040 
-0.391878 -0.001538 0.924781 
-0.565007 -0.001345 0.835478 
-0.716647 -0.001256 0.713007 
-0.840432 -0.001178 0.562906 
-0.930945 -0.000821 0.390719 
-0.985182 -0.000615 0.203604 
-0.978168 -0.000070 -0.185212 
-0.918019 0.000217 -0.371440 
-0.823030 0.000407 -0.543098 
-0.697274 0.000655 -0.693789 
-0.545283 0.000918 -0.818037 
-0.372563 0.001132 -0.911908 
-0.185637 0.001302 -0.971361 
0.203914 0.001487 -0.978040 
0.391839 0.001537 -0.924750 
0.564912 0.001399 -0.835428 
0.716578 0.001282 -0.713014 
0.840441 0.001164 -0.562890 
0.930953 0.000884 -0.390769 
0.985095 0.000657 -0.203623 
1.186267 0.188434 -0.006090 
1.142544 0.372051 -0.006062 
1.070837 0.546567 -0.005770 
0.972586 0.707816 -0.005511 
0.850365 0.851835 -0.005028 
0.707198 0.974744 -0.004173 
0.546419 1.073788 -0.003545 
0.372074 1.146327 -0.002704 
0.188489 1.190426 -0.001984 
-0.187838 1.190096 0.000083 
-0.371437 1.145603 0.001167 
-0.545690 1.073064 0.001846 
-0.706530 0.973887 0.002628 
-0.849594 0.851008 0.003466 
-0.971763 0.707251 0.004446 
-1.070273 0.545961 0.004923 
-1.142078 0.371576 0.005382 
-1.186031 0.188017 0.005778 
-1.186231 -0.188438 0.006118 
-1.142428 -0.372005 0.006048 
-1.070652 -0.546506 0.005782 
-0.972405 -0.707704 0.005469 
-0.850358 -0.851754 0.004875 
-0.707190 -0.974668 0.004153 
-0.546370 -1.073796 0.003504 
-0.372044 -1.146301 0.002719 
-0.188482 -1.190452 0.001993 
0.187914 -1.190132 -0.000063 
0.371503 -1.145754 -0.001135 
0.545790 -1.073134 -0.001875 
0.706591 -0.973943 -0.002686 
0.849638 -0.850970 -0.003506 
0.971778 -0.707227 -0.004533 
1.070272 -0.545939 -0.004950 
1.142069 -0.371549 -0.005387 
1.186038 -0.187967 -0.005805 
0.000787 -1.189729 -0.186609 
0.001601 -1.144793 -0.369557 
0.002525 -1.071505 -0.542966 
0.003198 -0.971894 -0.702623 
0.004083 -0.848553 -0.844942 
0.004875 -0.704508 -0.966150 
0.005220 -0.543645 -1.063552 
0.005584 -0.369606 -1.134996 
0.005897 -0.186643 -1.178884 
0.005956 0.188645 -1.179836 
0.005797 0.371773 -1.136985 
0.005504 0.546229 -1.066091 
0.005077 0.707496 -0.968997 
0.004469 0.851509 -0.847644 
0.003609 0.974601 -0.705550 
0.002946 1.073909 -0.545455 
0.002285 1.146657 -0.371606 
0.001217 1.190659 -0.188696 
-0.000830 1.189650 0.186564 
-0.001587 1.144861 0.369487 
-0.002338 1.071375 0.543182 
-0.003181 0.971861 0.702622 
-0.004083 0.848591 0.844924 
-0.004962 0.704517 0.966266 
-0.005264 0.543664 1.063582 
-0.005630 0.369615 1.135078 
-0.005923 0.186613 1.178909 
-0.006017 -0.188593 1.179847 
-0.005798 -0.371824 1.136879 
-0.005498 -0.546169 1.066073 
-0.005096 -0.707457 0.969093 
-0.004442 -0.851494 0.847716 
-0.003588 -0.974631 0.705608 
-0.002933 -1.073948 0.545492 
-0.002268 -1.146667 0.371657 
-0.001192 -1.190682 0.188795 
-1.189224 -0.000396 0.193516 
-1.147719 -0.000437 0.377038 
-1.077378 -0.000665 0.551476 
-0.979561 -0.000658 0.712245 
-0.856958 -0.000935 0.854726 
-0.713355 -0.000937 0.975748 
-0.551830 -0.000956 1.072423 
-0.377021 -0.000926 1.141619 
-0.193488 -0.000989 1.182442 
0.181011 -0.000853 1.176269 
0.363095 -0.000843 1.130031 
0.535773 -0.000739 1.056472 
0.695396 -0.000592 0.957857 
0.838627 -0.000492 0.836428 
0.961471 -0.000406 0.694360 
1.061245 -0.000172 0.535280 
1.135874 -0.000007 0.362888 
1.182988 0.000110 0.181127 
1.189197 0.000427 -0.193610 
1.147770 0.000559 -0.377008 
1.077425 0.000676 -0.551477 
0.979500 0.000711 -0.712214 
0.856977 0.000912 -0.854683 
0.713373 0.000880 -0.975720 
0.551809 0.000942 -1.072371 
0.376937 0.000960 -1.141638 
0.193489 0.000965 -1.182391 
-0.181065 0.000836 -1.176325 
-0.363185 0.000824 -1.130030 
-0.535769 0.000776 -1.056392 
-0.695435 0.000736 -0.958022 
-0.838680 0.000487 -0.836498 
-0.961575 0.000386 -0.694443 
-1.061384 0.000147 -0.535359 
-1.135935 -0.000006 -0.362919 
-1.182986 -0.000096 -0.181146 
0.825505 -0.398542 -0.421223 
0.422049 -0.796806 -0.444348 
0.402370 -0.377882 -0.838608 
0.898961 -0.299589 -0.344061 
0.299764 -0.898510 -0.335161 
0.690555 -0.337030 -0.654436 
0.564307 -0.633000 -0.542799 
0.872591 -0.482797 -0.115417 
0.187520 -0.620619 -0.761174 
0.622188 -0.171300 -0.775478 
0.881487 -0.156520 -0.467917 
0.211287 -0.855395 -0.479508 
0.959308 -0.138594 -0.274108 
0.811818 -0.293943 -0.524099 
0.688796 -0.646877 -0.348406 
0.466923 -0.866653 -0.204221 
0.632168 -0.760902 -0.179291 
0.534633 -0.478769 -0.705805 
0.806349 -0.142291 -0.593052 
0.562301 -0.756878 -0.351628 
0.988760 -0.122935 -0.122034 
0.775153 -0.619827 -0.157837 
0.155173 -0.952835 -0.276740 
0.941900 -0.307725 -0.166839 
0.743443 -0.472105 -0.492257 
0.270439 -0.955709 -0.152879 
0.558665 -0.301163 -0.782388 
0.340159 -0.707170 -0.625685 
0.839627 -0.470828 -0.296299 
0.507398 -0.181097 -0.850254 
0.153420 -0.759882 -0.633032 
0.202821 -0.480938 -0.852081 
0.185303 -0.317552 -0.928016 
0.358656 -0.557625 -0.753045 
0.646170 -0.483320 -0.604592 
0.125444 -0.989208 -0.124626 
0.455156 -0.603601 -0.662663 
0.338097 -0.215241 -0.918657 
0.213750 -0.131778 -0.966944 
0.510081 0.588313 -0.643524 
0.510363 0.790762 -0.364835 
0.816541 0.376507 -0.462941 
0.409207 0.473012 -0.790331 
0.355169 0.892428 -0.306526 
0.300005 0.316153 -0.904390 
0.179127 0.165605 -0.969038 
0.770822 0.219285 -0.617832 
0.680557 0.542841 -0.514552 
0.506584 0.852806 -0.176338 
0.611513 0.178905 -0.783826 
0.188905 0.884038 -0.443694 
0.177250 0.478437 -0.862842 
0.563284 0.690039 -0.477236 
0.155214 0.960658 -0.258593 
0.399457 0.141662 -0.911609 
0.132335 0.325326 -0.935678 
0.632033 0.708809 -0.342693 
0.122864 0.629470 -0.771160 
0.174786 0.760460 -0.634389 
0.309483 0.629868 -0.722115 
0.861102 0.489787 -0.179461 
0.618450 0.398029 -0.693863 
0.383104 0.772851 -0.523559 
0.767637 0.558876 -0.344276 
0.127465 0.991648 -0.113425 
0.292122 0.952694 -0.143826 
0.711453 0.695221 -0.155800 
0.952787 0.148744 -0.294237 
0.482758 0.308962 -0.829776 
0.861609 0.413976 -0.324633 
0.884845 0.172976 -0.457691 
0.943912 0.295136 -0.185803 
0.902833 0.286767 -0.349390 
0.986307 0.129799 -0.140691 
0.734155 0.388689 -0.577649 
0.452666 0.458551 0.747210 
0.449606 0.806951 0.375691 
0.826638 0.412066 0.361395 
0.323525 0.312451 0.877944 
0.302224 0.908650 0.290973 
0.902560 0.338500 0.245163 
0.960184 0.168994 0.199846 
0.545677 0.632423 0.533948 
0.100851 0.480169 0.862335 
0.743673 0.165850 0.623773 
0.432571 0.158915 0.869647 
0.428488 0.888204 0.177139 
0.863542 0.474330 0.158502 
0.252242 0.140319 0.943940 
0.253872 0.961212 0.138218 
0.937541 0.323434 0.113867 
0.603217 0.158549 0.759891 
0.506125 0.290346 0.792680 
0.311372 0.628456 0.700329 
0.775245 0.623526 0.105787 
0.668233 0.726224 0.161891 
0.581175 0.493899 0.627663 
0.187663 0.753970 0.621897 
0.756562 0.579022 0.288529 
0.625647 0.686364 0.357574 
0.384419 0.720013 0.566102 
0.550913 0.806325 0.215265 
0.110223 0.990991 0.121185 
0.103256 0.122223 0.977531 
0.458796 0.594228 0.644824 
0.144054 0.612753 0.768136 
0.696896 0.506685 0.487513 
0.633861 0.349177 0.668679 
0.149049 0.308333 0.928673 
0.163991 0.952815 0.264869 
0.776465 0.319345 0.519568 
0.831979 0.140153 0.511449 
0.212748 0.867013 0.447683 
0.880661 0.233410 0.387780 
0.248438 0.475714 0.831063 
0.508473 -0.791003 0.336781 
0.320515 -0.373804 0.858326 
0.324107 -0.877850 0.356293 
0.141263 -0.467476 0.866339 
0.503188 -0.159234 0.831117 
0.425194 -0.888715 0.184493 
0.599827 -0.547828 0.567732 
0.257201 -0.175869 0.937994 
0.226212 -0.962033 0.178146 
0.911141 -0.375065 0.154180 
0.762300 -0.401610 0.487020 
0.736842 -0.662090 0.134594 
0.861461 -0.189200 0.446926 
0.951710 -0.182043 0.224529 
0.497445 -0.323053 0.788376 
0.561417 -0.678478 0.463286 
0.609680 -0.777754 0.157452 
0.704338 -0.639447 0.296605 
[...]
POINT_DATA 1108
SCALARS u float 1
LOOKUP_TABLE default
0.009219
0.009133
0.005516
0.005640
0.011115
0.011061
0.006146
0.006145
0.005245
0.005185
0.008535
0.008584
0.009341
0.009275
0.008944
0.008529
0.007750
0.007066
0.006306
0.004916
0.004875
0.005410
0.006239
0.007052
0.008022
0.008673
0.009258
0.009171
0.008816
0.008403
0.007792
0.007147
0.006266
0.005065
0.005034
0.005531
0.006223
0.007065
0.008035
0.008696
0.010626
0.009815
0.008747
0.007836
0.007274
0.006606
0.006149
0.005146
0.005254
0.006264
0.007682
0.009161
0.010418
0.010996
0.010602
0.009656
0.008806
0.007875
0.007236
0.006630
0.006165
0.005121
0.005366
0.006241
0.007700
0.009245
0.010373
0.010997
0.010285
0.012789
0.015188
0.016672
0.016886
0.015701
0.013432
0.009419
0.009365
0.010341
0.011287
0.011641
0.010731
0.009602
0.010220
0.012681
0.015065
0.016568
0.016944
0.015717
0.013411
0.009360
0.009324
0.010242
0.011235
0.011636
0.010780
0.009582
0.006220
0.006315
0.006253
0.006294
0.006292
0.006021
0.006017
0.005872
0.005619
0.004872
0.004532
0.004369
0.004210
0.004393
0.004930
0.005171
0.005495
0.005841
0.006241
0.006271
0.006202
0.006164
0.006125
0.005955
0.005986
0.005850
0.005645
0.004910
0.004678
0.004464
0.004304
0.004415
0.005001
0.005192
0.005495
0.005867
0.004705
0.004073
0.003870
0.004333
0.005434
0.006803
0.007781
0.008484
0.008727
0.008086
0.007270
0.006488
0.005808
0.005444
0.005231
0.005588
0.005906
0.005652
0.004648
0.004148
0.003570
0.004313
0.005447
0.006786
0.007786
0.008454
0.008730
0.008117
0.007340
0.006477
0.005782
0.005403
0.005240
0.005618
0.005915
0.005687
0.007051
0.008971
0.010579
0.011157
0.010505
0.009453
0.007800
0.006279
0.006479
0.011224
0.013662
0.015621
0.016350
0.015643
0.014429
0.012404
0.009593
0.006964
0.007116
0.008993
0.010617
0.011093
0.010493
0.009448
0.007757
0.006203
0.006499
0.011146
0.013611
0.015691
0.016202
0.015555
0.014298
0.012254
0.009533
0.006947
0.009397
0.005945
0.008226
0.009425
0.005214
0.009817
0.007556
0.007577
0.007281
0.010118
0.010680
0.005543
0.009676
0.010260
0.007630
0.005569
0.006383
0.008247
0.011134
0.006585
0.008957
0.007108
0.005038
0.008535
0.009198
0.004941
0.009285
0.006416
0.008466
0.009309
0.006400
0.008097
0.008881
0.007233
0.008882
0.005063
0.007233
0.008687
0.009156
0.010727
0.009699
0.011675
0.010013
0.008550
0.009365
0.009460
0.011918
0.011330
0.008588
0.011074
0.008020
0.008878
0.010704
0.007230
0.009664
0.009337
0.010210
0.008428
0.008329
0.009367
0.009868
0.011515
0.009605
0.010891
0.006477
0.007351
0.009309
0.010434
0.010495
0.010843
0.011616
0.009876
0.011005
0.009511
0.011815
0.014439
0.008131
0.011897
0.014672
0.006310
0.010792
0.010674
0.011422
0.010963
0.015925
0.016203
0.006805
0.009601
0.014441
0.006038
0.009719
0.016996
0.016102
0.011313
0.008711
0.008316
0.013762
0.008709
0.009977
0.009676
0.009965
0.007607
0.005410
0.012502
0.012404
0.010103
0.012576
0.015463
0.012659
0.005556
0.014328
0.014813
0.006782
0.012869
0.012689
0.006698
0.012878
0.005882
0.010363
0.015962
0.005312
0.011423
0.013710
0.005269
0.008814
0.012484
0.006920
0.013339
0.010441
0.014550
0.008738
0.006137
0.008304
0.012127
0.011615
0.007246
0.006145
0.007510
0.007868
0.009783
0.015429
0.006436
0.011956
0.010429
0.009629
0.014067
0.008932
0.008762
0.010672
0.016142
0.014870
0.010979
0.005419
0.010801
0.009763
0.011539
0.010146
0.008651
0.009352
0.009416
0.011855
0.011396
0.008680
0.011219
0.008024
0.008934
0.010540
0.007161
0.009704
0.009334
0.010202
0.008382
0.008319
0.009380
0.009681
0.011571
0.009625
0.010821
0.006474
0.007396
0.009229
0.010347
0.010493
0.010863
0.011565
0.009744
0.010929
0.009479
0.011890
0.014173
0.008040
0.011685
0.014688
0.006367
0.010712
0.010617
0.011453
0.010917
0.015910
0.016184
0.006841
0.009514
0.014385
0.006006
0.009635
0.016816
0.016066
0.011152
0.008578
0.008347
0.013701
0.008487
0.009927
0.009661
0.009926
0.007643
0.005468
0.012511
0.012131
0.010083
0.012497
0.015325
0.012700
0.005655
0.014195
0.014659
0.006824
0.012852
0.012683
0.006645
0.012848
0.005863
0.010379
0.016055
0.005247
0.011386
0.013707
0.005197
0.008799
0.012403
0.006904
0.013270
0.010377
0.014483
0.008763
0.006031
0.008254
0.012050
0.011545
0.007204
0.006160
0.007521
0.007877
0.009762
0.015382
0.006446
0.011928
0.010349
0.009511
0.014001
0.008846
0.008743
0.010608
0.016108
0.014902
0.010878
0.005350
0.009401
0.005943
0.008286
0.009468
0.005239
0.009820
0.007548
0.007591
0.007293
0.010167
0.010700
0.005371
0.009616
0.010256
0.007604
0.005488
0.006210
0.008262
0.011146
0.006538
0.008919
0.007078
0.005040
0.008552
0.009193
0.004865
0.009334
0.006501
0.008452
0.009375
0.006438
0.008143
0.008917
0.007301
0.008874
0.005001
0.007301
0.008723
0.009179
0.006835
0.010399
0.010968
0.007804
0.004044
0.007710
0.004314
0.011640
0.006203
0.004838
0.010507
0.014166
0.005733
0.007653
0.013032
0.004646
0.015504
0.007256
0.004651
0.007003
0.005371
0.003869
0.010124
0.005023
0.009146
0.008848
0.006100
0.004292
0.007626
0.005142
0.011587
0.012503
0.008433
0.008200
0.010750
0.004582
0.009645
0.014969
0.004981
0.014248
0.009290
0.015783
0.005776
0.012246
0.004719
0.010168
0.004199
0.005168
0.003992
0.006756
0.003914
0.009454
0.006552
0.005207
0.006284
0.006183
0.011972
0.013495
0.004397
0.014248
0.008751
0.012767
0.010105
0.010212
0.007507
0.007791
0.009343
0.007205
0.008637
0.006423
0.006368
0.006968
0.006425
0.011355
0.007577
0.006988
0.006845
0.011363
0.009147
0.006037
0.009716
0.009092
0.007485
0.007737
0.006810
0.009933
0.006227
0.010584
0.007072
0.007545
0.006372
0.007949
0.009075
0.008652
0.010581
0.011110
0.009876
0.010695
0.008959
0.006141
0.011180
0.007332
0.010151
0.006126
0.010621
0.008215
0.011470
0.008061
0.010592
0.008673
0.007555
0.008266
0.009103
0.009886
0.011033
0.006621
0.005725
0.009182
0.011526
0.008306
0.007296
0.007227
0.006435
0.006140
0.013737
0.008873
0.004706
0.013722
0.009723
0.012600
0.008263
0.004356
0.012271
0.007877
0.004773
0.006311
0.008640
0.006391
0.006272
0.009472
0.005181
0.004726
0.013099
0.015384
0.016148
0.013605
0.006608
0.010448
0.004223
0.011482
0.014517
0.010558
0.006607
0.010626
0.006305
0.008386
0.007443
0.009571
0.010532
0.010374
0.013679
0.005701
0.007405
0.005524
0.005608
0.005997
0.005458
0.011168
0.007715
0.012236
0.008165
0.015055
0.016118
0.015089
0.011901
0.011233
0.012998
0.006472
0.010277
0.011190
0.008867
0.004797
0.015346
0.005057
0.003961
0.005099
0.008657
0.006542
0.004911
0.005936
0.008499
0.005831
0.007620
0.006214
0.007493
0.004798
0.006448
0.004632
0.005815
0.005532
0.006149
0.003882
0.005076
0.009747
0.007859
0.008273
0.010449
0.006386
0.006197
0.004886
0.007561
0.006345
0.009255
0.007018
0.006334
0.005535
0.004225
0.004655
0.005561
0.006543
0.007588
0.006446
0.008699
0.006245
0.005135
0.005213
0.004600
0.005464
0.004255
0.005160
0.005197
0.007330
0.005440
0.007643
0.009499
0.010484
0.006988
0.009566
0.007072
0.008590
0.006318
0.007264
0.007603
0.005800
0.004656
0.009729
0.004594
0.004723
0.007796
0.012186
0.013442
0.008524
0.004336
0.008235
0.004462
0.006549
0.005145
0.007594
0.015016
0.015715
0.009695
0.005056
0.013325
0.009250
0.016106
0.005740
0.007554
0.006269
0.005141
0.004085
0.010417
0.014951
0.010268
0.006684
0.004877
0.004549
0.007842
0.013277
0.011195
0.012964
0.014350
0.010626
0.010058
0.012337
0.005834
0.010393
0.005761
0.015230
0.015038
0.011404
0.016152
0.007369
0.012953
0.006226
0.010796
0.004449
0.005715
0.005656
0.007633
0.004795
0.008167
0.010416
0.005095
0.006456
0.012982
0.008085
0.013103
0.005422
0.011351
0.010159
0.008639
0.006508
0.004881
0.005880
0.008485
0.005807
0.007623
0.004774
0.006197
0.007527
0.004824
0.004725
0.006455
0.004476
0.005533
0.006193
0.003852
0.005117
0.009743
0.007803
0.008208
0.010436
0.006375
0.006197
0.004247
0.007555
0.006289
0.009281
0.007015
0.006339
0.005712
0.005401
0.006676
0.007618
0.006363
0.008696
0.006169
0.005154
0.005335
0.004507
0.006080
0.004213
0.005244
0.005128
0.007334
0.005391
0.007671
0.009461
0.010447
0.006911
0.009555
0.007026
0.008595
0.006342
0.007260
0.005693
0.007642
0.005348
0.009691
0.004245
0.004819
0.004747
0.006822
0.010398
0.011850
0.007852
0.004067
0.007749
0.004366
0.006226
0.004909
0.014245
0.005737
0.014747
0.007635
0.013109
0.004643
0.015372
0.007247
0.004692
0.007055
0.005393
0.003916
0.010214
0.005031
0.014060
0.008837
0.006110
0.004348
0.007662
0.005187
0.011439
0.009332
0.012587
0.012918
0.008519
0.008202
0.010857
0.004569
0.009734
0.015041
0.004965
0.013667
0.009296
0.015802
0.005743
0.012331
0.004709
0.010265
0.004186
0.005222
0.004053
0.006780
0.003945
0.009523
0.006521
0.005254
0.006318
0.012137
0.006199
0.012000
0.004431
0.010428
0.009735
0.009129
0.010768
0.010346
0.007815
0.006710
0.007200
0.006272
0.008936
0.006339
0.006643
0.007360
0.008992
0.011153
0.011396
0.007606
0.009321
0.007277
0.011244
0.007734
0.008376
0.006748
0.006123
0.007075
0.006916
0.010309
0.010533
0.006840
0.006149
0.006405
0.006206
0.010861
0.010404
0.011497
0.011030
0.010321
0.008600
0.009004
0.007226
0.010454
0.009182
0.011241
0.007300
0.011387
0.008892
0.009806
0.008311
0.007855
0.007437
0.006211
0.007789
0.006640
0.009874
0.010035
0.007029
0.005753
0.010567
0.009671
0.009136
0.006108
0.007444
0.009122
0.006915
0.008045
0.008245
0.012851
0.009063
0.009896
0.011316
0.011069
0.004103
0.002130
0.008214
0.007675
0.009316
0.008255
0.013551
0.007865
0.008468
0.009099
0.013787
0.010494
0.001901
0.005314
0.006583
0.006328
0.007964
0.012788
0.010867
0.012174
0.010575
0.011320
0.009240
0.013704
0.013197
0.011909
0.011366
0.007382
0.013983
0.013720
0.005315
0.010841
0.004829
0.010502
0.015742
0.008691
0.011173
0.009170
0.015041
0.006368
0.006428
0.013586
0.006924
0.008131
0.012579
0.015154
0.010499
0.010201
0.009294
0.010082
0.007363
0.010272
0.012032
0.010278
0.010371
0.008963
0.009652
0.009920
0.010371
0.013077
0.015486
0.007989
0.010886
0.012879
0.013103
0.013128
0.014624
0.008868
0.010653
0.012058
0.014531
0.013041
0.012437
0.011439
0.013283
0.012538
0.015401
0.013745
0.011118
0.005812
0.006398
0.005046
0.008268
0.005920
0.005754
0.010020
0.011298
0.009547
0.009858
0.010539
0.010841
0.005183
0.003973
0.010283
0.003097
