# vtk DataFile Version 2.0
Unstructured Grid Example
ASCII
DATASET UNSTRUCTURED_GRID
POINTS 1108 float
1.002226 0.000852 -0.021017 
-1.002227 -0.000827 0.020819 
0.001091 1.012194 -0.003210 
-0.000943 -1.012469 0.003336 
-0.020682 -0.003233 0.985434 
0.020594 0.003351 -0.985551 
1.202126 0.000593 -0.013928 
-1.202092 -0.000378 0.013939 
0.000773 1.211810 -0.002178 
-0.000711 -1.211638 0.002362 
-0.013814 -0.002181 1.186291 
0.013886 0.002263 -1.186216 
0.983295 0.197603 -0.021137 
0.926854 0.387215 -0.020578 
0.835050 0.562247 -0.019071 
0.711046 0.715689 -0.017140 
0.559368 0.841865 -0.013919 
0.385723 0.935617 -0.010764 
0.197149 0.993172 -0.007190 
-0.195021 0.992052 0.000545 
-0.383737 0.933982 0.004681 
-0.557070 0.839983 0.008908 
-0.709075 0.713643 0.012582 
-0.833885 0.560148 0.015330 
-0.925816 0.385243 0.018124 
-0.982848 0.195975 0.019773 
-0.983308 -0.197433 0.020962 
-0.926581 -0.387051 0.020407 
-0.834517 -0.562008 0.018932 
-0.710545 -0.715547 0.016991 
-0.559106 -0.841874 0.014101 
-0.385595 -0.935640 0.011052 
-0.197134 -0.993095 0.007141 
0.195317 -0.992391 -0.000557 
0.383789 -0.934406 -0.004625 
0.557163 -0.840140 -0.009129 
0.709037 -0.713675 -0.012530 
0.833854 -0.560202 -0.015350 
0.925736 -0.385200 -0.018168 
0.982859 -0.195909 -0.019827 
-0.020390 -0.199114 0.968036 
-0.019477 -0.387853 0.913828 
-0.017578 -0.562545 0.824747 
-0.015214 -0.716054 0.703677 
-0.012372 -0.842613 0.554423 
-0.008624 -0.936308 0.383658 
-0.004804 -0.993840 0.197450 
0.003115 -0.991401 -0.190968 
0.007030 -0.931762 -0.376872 
0.010795 -0.836331 -0.547421 
0.013924 -0.709092 -0.696482 
0.016504 -0.555324 -0.818456 
0.018704 -0.380991 -0.909091 
0.019935 -0.192436 -0.965550 
0.020363 0.199060 -0.968083 
0.019258 0.387831 -0.914208 
0.017731 0.562593 -0.824797 
0.015305 0.716012 -0.703504 
0.012335 0.842512 -0.554312 
0.008767 0.936282 -0.383531 
0.004986 0.993824 -0.197383 
-0.002942 0.991411 0.191030 
-0.007110 0.931878 0.376594 
-0.010802 0.836272 0.547490 
-0.014037 0.709179 0.696580 
-0.016654 0.555382 0.818334 
-0.018768 0.381105 0.909328 
-0.020070 0.192555 0.965704 
0.974808 0.000204 0.172263 
0.910263 -0.000512 0.356697 
0.811732 -0.000994 0.526867 
0.684289 -0.001511 0.676441 
0.531789 -0.002280 0.800968 
0.359475 -0.002656 0.896454 
0.173349 -0.002930 0.959137 
-0.215511 -0.003221 0.974487 
-0.403779 -0.003529 0.925948 
-0.577223 -0.003087 0.840666 
-0.728996 -0.002881 0.720645 
-0.852034 -0.002702 0.572401 
-0.940090 -0.001884 0.401121 
-0.990872 -0.001410 0.214626 
-0.974781 -0.000161 -0.172424 
-0.910432 0.000498 -0.356887 
-0.812106 0.000933 -0.526953 
-0.684545 0.001503 -0.676550 
-0.531966 0.002105 -0.800650 
-0.359463 0.002596 -0.896411 
-0.173401 0.002987 -0.959162 
0.215335 0.003412 -0.974486 
0.403690 0.003527 -0.925878 
0.577004 0.003210 -0.840553 
0.728837 0.002942 -0.720660 
0.852053 0.002671 -0.572364 
0.940110 0.002028 -0.401236 
0.990673 0.001508 -0.214669 
1.187615 0.189357 -0.013974 
1.144196 0.373643 -0.013908 
1.072946 0.548869 -0.013238 
0.974872 0.711018 -0.012645 
0.852743 0.856115 -0.011537 
0.709600 0.979824 -0.009575 
0.548530 1.079717 -0.008134 
0.373696 1.152877 -0.006204 
0.189482 1.197158 -0.004553 
-0.187990 1.196400 0.000189 
-0.372235 1.151215 0.002678 
-0.546856 1.078055 0.004236 
-0.708069 0.977856 0.006031 
-0.850974 0.854218 0.007952 
-0.972983 0.709723 0.010202 
-1.071652 0.547478 0.011295 
-1.143126 0.372553 0.012349 
-1.187073 0.188399 0.013257 
-1.187531 -0.189367 0.014037 
-1.143929 -0.373539 0.013877 
-1.072521 -0.548730 0.013267 
-0.974456 -0.710760 0.012547 
-0.852726 -0.855929 0.011186 
-0.709582 -0.979648 0.009529 
-0.548418 -1.079736 0.008040 
-0.373629 -1.152816 0.006239 
-0.189467 -1.197217 0.004572 
0.188163 -1.196482 -0.000145 
0.372386 -1.151561 -0.002605 
0.547086 -1.078215 -0.004302 
0.708208 -0.977985 -0.006162 
0.851074 -0.854132 -0.008045 
0.973017 -0.709666 -0.010400 
1.071650 -0.547427 -0.011358 
1.143106 -0.372493 -0.012360 
1.187090 -0.188285 -0.013319 
0.001806 -1.195559 -0.185169 
0.003673 -1.149357 -0.367920 
0.005794 -1.074479 -0.540607 
0.007337 -0.973284 -0.699103 
0.009368 -0.848586 -0.840299 
0.011185 -0.703429 -0.960104 
0.011978 -0.542165 -1.056230 
0.012812 -0.368034 -1.126878 
0.013530 -0.185247 -1.170675 
0.013665 0.189841 -1.172858 
0.013301 0.373007 -1.131441 
0.012629 0.548095 -1.062056 
0.011648 0.710284 -0.966636 
0.010254 0.855367 -0.846500 
0.008281 0.979495 -0.705820 
0.006760 1.079994 -0.546317 
0.005242 1.153632 -0.372623 
0.002792 1.197692 -0.189958 
-0.001903 1.195378 0.185067 
-0.003641 1.149512 0.367760 
-0.005365 1.074181 0.541101 
-0.007300 0.973208 0.699102 
-0.009369 0.848673 0.840258 
-0.011386 0.703448 0.960371 
-0.012077 0.542209 1.056299 
-0.012918 0.368054 1.127066 
-0.013589 0.185177 1.170732 
-0.013806 -0.189722 1.172885 
-0.013303 -0.373122 1.131198 
-0.012614 -0.547955 1.062014 
-0.011693 -0.710195 0.966857 
-0.010192 -0.855334 0.846665 
-0.008232 -0.979563 0.705952 
-0.006730 -1.080083 0.546402 
-0.005203 -1.153655 0.372741 
-0.002735 -1.197744 0.190185 
-1.194399 -0.000910 0.201016 
-1.156071 -0.001002 0.385087 
-1.087954 -0.001527 0.560132 
-0.990875 -0.001510 0.721180 
-0.867871 -0.002146 0.862750 
-0.723727 -0.002151 0.982126 
-0.560945 -0.002193 1.076585 
-0.385048 -0.002125 1.142073 
-0.200952 -0.002268 1.178838 
0.172324 -0.001956 1.164675 
0.353095 -0.001935 1.115486 
0.524103 -0.001695 1.039987 
0.682521 -0.001358 0.941076 
0.825810 -0.001129 0.820764 
0.949368 -0.000932 0.680144 
1.050936 -0.000395 0.522971 
1.128891 -0.000016 0.352620 
1.180091 0.000252 0.172591 
1.194338 0.000979 -0.201234 
1.156188 0.001282 -0.385017 
1.088063 0.001552 -0.560135 
0.990734 0.001631 -0.721109 
0.867914 0.002092 -0.862651 
0.723767 0.002020 -0.982061 
0.560896 0.002161 -1.076466 
0.384855 0.002204 -1.142117 
0.200956 0.002213 -1.178721 
-0.172448 0.001919 -1.164803 
-0.353301 0.001891 -1.115483 
-0.524093 0.001780 -1.039801 
-0.682610 0.001688 -0.941455 
-0.825931 0.001116 -0.820925 
-0.949607 0.000887 -0.680334 
-1.051256 0.000338 -0.523153 
-1.129031 -0.000013 -0.352691 
-1.180087 -0.000220 -0.172635 
0.834140 -0.400867 -0.429470 
0.428181 -0.801109 -0.446109 
0.412969 -0.378423 -0.839473 
0.906686 -0.301012 -0.353395 
0.303949 -0.903775 -0.335726 
0.701414 -0.338431 -0.660888 
0.572631 -0.636438 -0.546611 
0.875855 -0.485346 -0.124309 
0.196199 -0.621956 -0.757750 
0.634084 -0.171058 -0.780951 
0.891507 -0.156712 -0.477440 
0.217021 -0.859496 -0.478172 
0.966221 -0.138782 -0.284550 
0.822017 -0.295387 -0.532483 
0.695439 -0.650838 -0.354549 
0.470269 -0.872204 -0.207378 
0.636005 -0.765567 -0.184928 
0.544592 -0.480707 -0.709124 
0.817943 -0.142249 -0.601613 
0.568278 -0.761482 -0.355594 
0.992453 -0.123032 -0.133025 
0.779083 -0.623457 -0.165322 
0.158206 -0.958498 -0.275617 
0.946403 -0.309088 -0.176836 
0.752645 -0.475009 -0.499232 
0.272409 -0.961753 -0.153585 
0.569929 -0.301777 -0.786537 
0.347952 -0.710041 -0.625776 
0.846412 -0.473543 -0.304466 
0.518984 -0.180655 -0.853533 
0.160705 -0.762407 -0.630003 
0.212632 -0.481338 -0.848415 
0.195917 -0.316947 -0.923640 
0.367868 -0.559294 -0.753189 
0.656027 -0.485904 -0.609916 
0.126539 -0.995609 -0.123742 
0.463920 -0.606159 -0.664741 
0.349299 -0.214525 -0.917973 
0.224976 -0.130445 -0.963386 
0.520517 0.594957 -0.649831 
0.517543 0.798547 -0.371579 
0.826902 0.381322 -0.472833 
0.420257 0.478430 -0.794401 
0.360692 0.900485 -0.311731 
0.311501 0.319956 -0.904946 
0.190593 0.168153 -0.965572 
0.782725 0.222926 -0.626946 
0.690649 0.549187 -0.523094 
0.511111 0.860096 -0.183406 
0.623839 0.182227 -0.790347 
0.195385 0.891763 -0.446167 
0.187813 0.482864 -0.861889 
0.572216 0.697621 -0.484633 
0.159321 0.968600 -0.261356 
0.411479 0.144531 -0.913533 
0.143446 0.328602 -0.932228 
0.639523 0.715846 -0.351006 
0.132409 0.634708 -0.770473 
0.183207 0.767049 -0.635768 
0.319455 0.636158 -0.724951 
0.866594 0.494340 -0.190056 
0.630221 0.403401 -0.701264 
0.391387 0.780616 -0.528625 
0.776055 0.564856 -0.353874 
0.129691 0.999205 -0.116293 
0.295456 0.960271 -0.148519 
0.716156 0.701219 -0.165133 
0.960336 0.150949 -0.305217 
0.494690 0.313328 -0.834585 
0.869966 0.418620 -0.334908 
0.895385 0.175910 -0.468006 
0.949500 0.298115 -0.196908 
0.911566 0.290379 -0.360049 
0.990729 0.131408 -0.152068 
0.745406 0.393864 -0.586624 
0.441629 0.456737 0.732234 
0.445368 0.809275 0.366341 
0.820042 0.412179 0.347480 
0.311463 0.310459 0.863409 
0.299860 0.912767 0.284326 
0.898285 0.339281 0.231886 
0.956511 0.169471 0.186535 
0.537987 0.632272 0.521321 
0.090744 0.479163 0.852424 
0.731867 0.164753 0.606909 
0.419489 0.157100 0.853353 
0.427612 0.892961 0.169777 
0.861654 0.476240 0.146367 
0.239839 0.138520 0.930070 
0.253553 0.967098 0.133087 
0.936241 0.324878 0.101437 
0.590092 0.156953 0.742307 
0.493575 0.288375 0.776156 
0.302389 0.627745 0.688786 
0.775037 0.626716 0.094973 
0.667245 0.729592 0.151715 
0.571290 0.492653 0.612895 
0.180344 0.754702 0.613354 
0.752470 0.580375 0.276354 
0.620845 0.687749 0.346089 
0.377286 0.720373 0.555361 
0.549274 0.809904 0.206240 
0.109912 0.997241 0.118041 
0.091419 0.120490 0.966632 
0.449681 0.593302 0.631638 
0.135055 0.612338 0.758656 
0.688695 0.506222 0.473459 
0.622433 0.347640 0.652318 
0.137651 0.306745 0.917006 
0.161864 0.957838 0.260181 
0.766442 0.318466 0.503988 
0.821420 0.139400 0.495460 
0.207982 0.869795 0.440856 
0.872937 0.233231 0.373021 
0.237758 0.474146 0.818683 
0.504231 -0.794662 0.330164 
0.308860 -0.375215 0.846492 
0.319976 -0.882912 0.352383 
0.130585 -0.469980 0.858615 
0.490070 -0.160157 0.815180 
0.423421 -0.893842 0.180268 
0.590795 -0.548951 0.556079 
0.244909 -0.177374 0.925282 
0.224290 -0.968424 0.176743 
0.908774 -0.376234 0.143080 
0.753349 -0.402240 0.473581 
0.735447 -0.664827 0.126180 
0.852319 -0.189586 0.432283 
0.947460 -0.182443 0.211706 
0.485279 -0.323854 0.774020 
0.554904 -0.680681 0.454305 
0.608108 -0.781560 0.150659 
0.699852 -0.641736 0.287108 
[...]
POINT_DATA 1108
SCALARS u float 1
LOOKUP_TABLE default
0.021152
0.020954
0.012656
0.012942
0.025502
0.025379
0.014101
0.014100
0.012034
0.011896
0.019584
0.019696
0.021433
0.021280
0.020521
0.019569
0.017783
0.016213
0.014470
0.011280
0.011184
0.012413
0.014315
0.016181
0.018406
0.019900
0.021243
0.021043
0.020228
0.019281
0.017877
0.016399
0.014377
0.011622
0.011551
0.012691
0.014278
0.016210
0.018436
0.019952
0.024382
0.022520
0.020071
0.017980
0.016690
0.015158
0.014109
0.011806
0.012055
0.014372
0.017627
0.021019
0.023904
0.025230
0.024326
0.022156
0.020205
0.018070
0.016604
0.015212
0.014146
0.011749
0.012313
0.014319
0.017668
0.021212
0.023801
0.025233
0.023598
0.029343
0.034848
0.038253
0.038744
0.036026
0.030820
0.021611
0.021489
0.023727
0.025898
0.026711
0.024623
0.022031
0.023449
0.029096
0.034565
0.038014
0.038878
0.036062
0.030772
0.021475
0.021394
0.023499
0.025779
0.026699
0.024734
0.021986
0.014270
0.014491
0.014348
0.014440
0.014437
0.013815
0.013806
0.013473
0.012892
0.011179
0.010398
0.010025
0.009659
0.010079
0.011312
0.011865
0.012608
0.013402
0.014320
0.014389
0.014231
0.014142
0.014054
0.013664
0.013735
0.013423
0.012951
0.011266
0.010733
0.010243
0.009876
0.010129
0.011476
0.011913
0.012608
0.013460
0.010795
0.009345
0.008880
0.009941
0.012469
0.015608
0.017854
0.019467
0.020023
0.018552
0.016681
0.014885
0.013327
0.012491
0.012002
0.012821
0.013550
0.012969
0.010664
0.009517
0.008192
0.009896
0.012497
0.015569
0.017865
0.019396
0.020030
0.018625
0.016842
0.014862
0.013266
0.012396
0.012024
0.012891
0.013572
0.013048
0.016178
0.020584
0.024273
0.025599
0.024104
0.021689
0.017896
0.014408
0.014866
0.025754
0.031347
0.035842
0.037515
0.035892
0.033107
0.028461
0.022010
0.015980
0.016327
0.020635
0.024360
0.025452
0.024076
0.021678
0.017798
0.014232
0.014912
0.025575
0.031231
0.036003
0.037174
0.035690
0.032806
0.028116
0.021873
0.015939
0.021562
0.013641
0.018874
0.021625
0.011963
0.022526
0.017336
0.017386
0.016706
0.023215
0.024505
0.012717
0.022200
0.023541
0.017507
0.012778
0.014645
0.018922
0.025546
0.015108
0.020552
0.016308
0.011559
0.019584
0.021104
0.011336
0.021305
0.014722
0.019426
0.021358
0.014684
0.018578
0.020378
0.016595
0.020379
0.011617
0.016596
0.019933
0.021008
0.024613
0.022254
0.026787
0.022975
0.019618
0.021487
0.021706
0.027346
0.025996
0.019705
0.025409
0.018402
0.020371
0.024560
0.016589
0.022173
0.021424
0.023428
0.019338
0.019110
0.021493
0.022641
0.026422
0.022038
0.024989
0.014860
0.016867
0.021358
0.023940
0.024081
0.024878
0.026652
0.022659
0.025250
0.021822
0.027110
0.033131
0.018657
0.027297
0.033664
0.014478
0.024761
0.024491
0.026207
0.025154
0.036540
0.037176
0.015614
0.022030
0.033135
0.013853
0.022300
0.038996
0.036945
0.025957
0.019987
0.019081
0.031577
0.019983
0.022892
0.022201
0.022865
0.017454
0.012413
0.028685
0.028460
0.023181
0.028854
0.035480
0.029047
0.012748
0.032874
0.033988
0.015561
0.029528
0.029114
0.015368
0.029548
0.013497
0.023777
0.036625
0.012189
0.026209
0.031456
0.012089
0.020223
0.028643
0.015878
0.030607
0.023956
0.033385
0.020049
0.014080
0.019054
0.027824
0.026650
0.016626
0.014101
0.017231
0.018053
0.022448
0.035402
0.014768
0.027432
0.023929
0.022094
0.032275
0.020493
0.020104
0.024486
0.037038
0.034119
0.025192
0.012434
0.024782
0.022402
0.026476
0.023279
0.019849
0.021458
0.021605
0.027201
0.026147
0.019916
0.025741
0.018410
0.020499
0.024184
0.016431
0.022265
0.021417
0.023409
0.019233
0.019089
0.021522
0.022212
0.026549
0.022085
0.024829
0.014853
0.016969
0.021175
0.023740
0.024077
0.024925
0.026536
0.022357
0.025077
0.021750
0.027282
0.032519
0.018448
0.026810
0.033701
0.014609
0.024579
0.024360
0.026280
0.025048
0.036505
0.037133
0.015696
0.021829
0.033006
0.013780
0.022107
0.038584
0.036864
0.025588
0.019681
0.019151
0.031436
0.019472
0.022778
0.022166
0.022776
0.017536
0.012547
0.028706
0.027834
0.023136
0.028673
0.035163
0.029140
0.012975
0.032570
0.033634
0.015658
0.029488
0.029101
0.015246
0.029479
0.013452
0.023813
0.036837
0.012039
0.026125
0.031451
0.011925
0.020190
0.028458
0.015841
0.030448
0.023811
0.033232
0.020107
0.013837
0.018938
0.027648
0.026489
0.016529
0.014133
0.017258
0.018073
0.022399
0.035293
0.014790
0.027367
0.023745
0.021822
0.032126
0.020297
0.020060
0.024339
0.036959
0.034193
0.024960
0.012276
0.021570
0.013636
0.019013
0.021723
0.012021
0.022533
0.017319
0.017418
0.016733
0.023327
0.024551
0.012323
0.022063
0.023532
0.017448
0.012593
0.014249
0.018957
0.025575
0.015002
0.020464
0.016241
0.011563
0.019623
0.021093
0.011162
0.021417
0.014916
0.019392
0.021510
0.014772
0.018685
0.020460
0.016751
0.020361
0.011474
0.016752
0.020016
0.021062
0.015683
0.023860
0.025166
0.017905
0.009278
0.017690
0.009898
0.026707
0.014232
0.011100
0.024109
0.032503
0.013154
0.017560
0.029900
0.010659
0.035572
0.016648
0.010672
0.016068
0.012324
0.008876
0.023230
0.011525
0.020985
0.020301
0.013996
0.009849
0.017498
0.011798
0.026586
0.028687
0.019350
0.018815
0.024666
0.010512
0.022130
0.034347
0.011428
0.032692
0.021316
0.036214
0.013253
0.028099
0.010828
0.023330
0.009635
0.011859
0.009160
0.015501
0.008980
0.021692
0.015033
0.011947
0.014418
0.014186
0.027470
0.030964
0.010090
0.032691
0.020078
0.029293
0.023186
0.023432
0.017225
0.017876
0.021438
0.016532
0.019817
0.014738
0.014612
0.015988
0.014742
0.026053
0.017384
0.016034
0.015705
0.026073
0.020987
0.013851
0.022294
0.020862
0.017175
0.017753
0.015625
0.022792
0.014288
0.024285
0.016227
0.017312
0.014620
0.018238
0.020822
0.019852
0.024278
0.025491
0.022660
0.024539
0.020556
0.014090
0.025653
0.016823
0.023290
0.014055
0.024369
0.018848
0.026317
0.018495
0.024303
0.019899
0.017335
0.018966
0.020886
0.022682
0.025314
0.015192
0.013135
0.021067
0.026446
0.019057
0.016740
0.016583
0.014765
0.014088
0.031519
0.020358
0.010799
0.031484
0.022309
0.028911
0.018960
0.009995
0.028154
0.018074
0.010952
0.014481
0.019824
0.014664
0.014391
0.021734
0.011887
0.010843
0.030055
0.035297
0.037052
0.031216
0.015161
0.023974
0.009689
0.026344
0.033310
0.024225
0.015159
0.024382
0.014466
0.019242
0.017079
0.021961
0.024165
0.023802
0.031387
0.013080
0.016992
0.012674
0.012868
0.013760
0.012524
0.025625
0.017701
0.028076
0.018734
0.034544
0.036983
0.034621
0.027306
0.025774
0.029823
0.014851
0.023581
0.025675
0.020345
0.011005
0.035211
0.011603
0.009089
0.011700
0.019863
0.015011
0.011269
0.013620
0.019501
0.013379
0.017484
0.014257
0.017192
0.011008
0.014794
0.010628
0.013342
0.012693
0.014108
0.008906
0.011648
0.022365
0.018032
0.018983
0.023975
0.014653
0.014219
0.011210
0.017349
0.014558
0.021234
0.016102
0.014533
0.012700
0.009695
0.010680
0.012759
0.015013
0.017410
0.014790
0.019959
0.014329
0.011781
0.011961
0.010554
0.012536
0.009763
0.011839
0.011924
0.016818
0.012482
0.017537
0.021794
0.024054
0.016033
0.021948
0.016227
0.019709
0.014497
0.016666
0.017444
0.013307
0.010683
0.022322
0.010540
0.010837
0.017887
0.027961
0.030842
0.019558
0.009949
0.018895
0.010238
0.015026
0.011805
0.017424
0.034454
0.036058
0.022246
0.011601
0.030573
0.021223
0.036954
0.013170
0.017332
0.014385
0.011795
0.009373
0.023902
0.034304
0.023559
0.015337
0.011190
0.010438
0.017993
0.030463
0.025686
0.029745
0.032926
0.024381
0.023078
0.028307
0.013386
0.023847
0.013218
0.034945
0.034505
0.026167
0.037061
0.016907
0.029720
0.014286
0.024772
0.010208
0.013112
0.012978
0.017513
0.011003
0.018739
0.023900
0.011691
0.014813
0.029787
0.018551
0.030064
0.012441
0.026044
0.023310
0.019823
0.014933
0.011200
0.013492
0.019469
0.013324
0.017491
0.010954
0.014219
0.017271
0.011069
0.010841
0.014811
0.010270
0.012695
0.014211
0.008838
0.011741
0.022356
0.017904
0.018833
0.023945
0.014628
0.014218
0.009744
0.017334
0.014429
0.021294
0.016095
0.014545
0.013107
0.012392
0.015317
0.017478
0.014601
0.019952
0.014154
0.011826
0.012242
0.010341
0.013949
0.009666
0.012031
0.011767
0.016827
0.012370
0.017600
0.021709
0.023971
0.015858
0.021923
0.016120
0.019720
0.014553
0.016659
0.013062
0.017534
0.012270
0.022236
0.009740
0.011056
0.010892
0.015652
0.023858
0.027190
0.018015
0.009331
0.017781
0.010018
0.014284
0.011263
0.032685
0.013164
0.033837
0.017519
0.030078
0.010652
0.035271
0.016628
0.010765
0.016186
0.012375
0.008986
0.023436
0.011543
0.032261
0.020275
0.014020
0.009975
0.017580
0.011901
0.026247
0.021412
0.028881
0.029640
0.019546
0.018818
0.024911
0.010484
0.022335
0.034511
0.011392
0.031359
0.021329
0.036257
0.013176
0.028293
0.010804
0.023553
0.009606
0.011982
0.009300
0.015555
0.009053
0.021850
0.014963
0.012056
0.014496
0.027848
0.014224
0.027534
0.010168
0.023927
0.022337
0.020946
0.024708
0.023738
0.017930
0.015396
0.016520
0.014392
0.020503
0.014545
0.015242
0.016887
0.020633
0.025590
0.026148
0.017452
0.021387
0.016697
0.025800
0.017745
0.019219
0.015483
0.014050
0.016234
0.015869
0.023654
0.024167
0.015693
0.014108
0.014695
0.014239
0.024921
0.023871
0.026380
0.025307
0.023680
0.019733
0.020660
0.016581
0.023985
0.021068
0.025793
0.016749
0.026127
0.020403
0.022499
0.019069
0.018022
0.017065
0.014250
0.017872
0.015235
0.022656
0.023026
0.016128
0.013199
0.024246
0.022191
0.020962
0.014016
0.017080
0.020931
0.015866
0.018459
0.018918
0.029487
0.020794
0.022707
0.025964
0.025397
0.009415
0.004887
0.018846
0.017609
0.021375
0.018940
0.031092
0.018045
0.019431
0.020877
0.031633
0.024077
0.004361
0.012192
0.015104
0.014519
0.018272
0.029342
0.024934
0.027933
0.024264
0.025973
0.021202
0.031444
0.030279
0.027325
0.026080
0.016937
0.032083
0.031481
0.012194
0.024875
0.011080
0.024096
0.036119
0.019942
0.025636
0.021040
0.034512
0.014612
0.014748
0.031172
0.015886
0.018657
0.028862
0.034771
0.024090
0.023405
0.021325
0.023133
0.016894
0.023568
0.027606
0.023582
0.023795
0.020565
0.022145
0.022760
0.023796
0.030005
0.035532
0.018332
0.024977
0.029551
0.030064
0.030123
0.033555
0.020347
0.024444
0.027666
0.033341
0.029923
0.028537
0.026247
0.030478
0.028769
0.035338
0.031537
0.025510
0.013336
0.014679
0.011578
0.018970
0.013584
0.013203
0.022991
0.025922
0.021906
0.022619
0.024182
0.024875
0.011892
0.009117
0.023593
0.007107
