# vtk DataFile Version 2.0
Unstructured Grid Example
ASCII
DATASET UNSTRUCTURED_GRID
POINTS 1108 float
0.997681 -0.000888 0.021886 
-0.997681 0.000861 -0.021680 
-0.001136 0.987302 0.003343 
0.000982 -0.987015 -0.003474 
0.021537 0.003366 1.015169 
-0.021445 -0.003489 -1.015047 
1.197786 -0.000617 0.014504 
-1.197822 0.000393 -0.014515 
-0.000805 1.187701 0.002268 
0.000741 -1.187881 -0.002460 
0.014385 0.002271 1.214276 
-0.014461 -0.002356 -1.214354 
0.978171 0.192474 0.022011 
0.920782 0.377964 0.021429 
0.827741 0.548617 0.019860 
0.703004 0.698170 0.017849 
0.551615 0.820644 0.014495 
0.379518 0.911656 0.011209 
0.192947 0.967886 0.007488 
-0.195163 0.969053 -0.000567 
-0.381587 0.913359 -0.004875 
-0.554008 0.822604 -0.009276 
-0.705057 0.700300 -0.013103 
-0.828954 0.550803 -0.015965 
-0.921863 0.380018 -0.018874 
-0.978638 0.194169 -0.020591 
-0.978159 -0.192651 -0.021829 
-0.921066 -0.378135 -0.021251 
-0.828296 -0.548867 -0.019715 
-0.703526 -0.698318 -0.017694 
-0.551888 -0.820635 -0.014685 
-0.379651 -0.911632 -0.011509 
-0.192962 -0.967966 -0.007436 
0.194854 -0.968699 0.000580 
0.381532 -0.912917 0.004817 
0.553912 -0.822440 0.009507 
0.705096 -0.700267 0.013048 
0.828987 -0.550747 0.015985 
0.921946 -0.380062 0.018920 
0.978626 -0.194238 0.020647 
0.021234 -0.190900 0.994061 
0.020283 -0.377300 0.934347 
0.018305 -0.548307 0.838470 
0.015843 -0.697789 0.710678 
0.012884 -0.819865 0.556765 
0.008981 -0.910937 0.381668 
0.005002 -0.967191 0.192633 
-0.003244 -0.969731 -0.199383 
-0.007321 -0.915671 -0.388736 
-0.011241 -0.826407 -0.564056 
-0.014500 -0.705039 -0.718171 
-0.017187 -0.555827 -0.845022 
-0.019478 -0.384446 -0.939280 
-0.020760 -0.197855 -0.996650 
-0.021206 0.190956 -0.994013 
-0.020055 0.377323 -0.933951 
-0.018465 0.548257 -0.838418 
-0.015938 0.697833 -0.710859 
-0.012845 0.819970 -0.556880 
-0.009130 0.910964 -0.381801 
-0.005192 0.967207 -0.192703 
0.003064 0.969720 0.199319 
0.007404 0.915551 0.389025 
0.011249 0.826469 0.563985 
0.014618 0.704948 0.718069 
0.017343 0.555767 0.845149 
0.019544 0.384327 0.939033 
0.020900 0.197730 0.996491 
0.987010 -0.000212 0.218862 
0.938060 0.000533 0.409745 
0.852023 0.001035 0.585460 
0.730868 0.001574 0.739041 
0.580335 0.002375 0.863233 
0.406852 0.002766 0.952440 
0.217730 0.003051 1.003329 
-0.173825 0.003354 0.987344 
-0.360715 0.003675 0.921726 
-0.533022 0.003214 0.821893 
-0.684313 0.003000 0.693008 
-0.810055 0.002814 0.538043 
-0.906998 0.001962 0.363483 
-0.970281 0.001469 0.174747 
-0.987038 0.000167 -0.218694 
-0.937883 -0.000518 -0.409547 
-0.851634 -0.000971 -0.585371 
-0.730602 -0.001565 -0.738928 
-0.580151 -0.002193 -0.863564 
-0.406865 -0.002704 -0.952485 
-0.217677 -0.003110 -1.003303 
0.174008 -0.003553 -0.987346 
0.360808 -0.003673 -0.921799 
0.533250 -0.003343 -0.822011 
0.684478 -0.003064 -0.692992 
0.810034 -0.002781 -0.538082 
0.906978 -0.002112 -0.363363 
0.970489 -0.001571 -0.174702 
1.182738 0.186018 0.014552 
1.138219 0.367881 0.014483 
1.065315 0.540539 0.013786 
0.966601 0.699432 0.013168 
0.844139 0.840627 0.012014 
0.700908 0.961445 0.009971 
0.540893 1.058264 0.008470 
0.367826 1.129179 0.006461 
0.185888 1.172801 0.004742 
-0.187442 1.173589 -0.000197 
-0.369347 1.130910 -0.002788 
-0.542636 1.059994 -0.004411 
-0.702503 0.963494 -0.006280 
-0.845981 0.842603 -0.008281 
-0.968569 0.700781 -0.010624 
-1.066662 0.541988 -0.011762 
-1.139333 0.369016 -0.012860 
-1.183303 0.187015 -0.013805 
-1.182825 -0.186008 -0.014618 
-1.138496 -0.367989 -0.014451 
-1.065758 -0.540684 -0.013815 
-0.967035 -0.699700 -0.013066 
-0.844156 -0.840821 -0.011648 
-0.700927 -0.961628 -0.009923 
-0.541009 -1.058245 -0.008372 
-0.367896 -1.129241 -0.006497 
-0.185903 -1.172739 -0.004761 
0.187262 -1.173504 0.000151 
0.369190 -1.130549 0.002713 
0.542396 -1.059828 0.004480 
0.702358 -0.963359 0.006417 
0.845877 -0.842693 0.008377 
0.968533 -0.700839 0.010831 
1.066665 -0.542041 0.011828 
1.139354 -0.369078 0.012871 
1.183285 -0.187134 0.013870 
-0.001881 -1.174466 -0.190379 
-0.003825 -1.132844 -0.373840 
-0.006034 -1.063719 -0.549143 
-0.007640 -0.968255 -0.711839 
-0.009755 -0.848468 -0.857097 
-0.011648 -0.707335 -0.981980 
-0.012473 -0.547520 -1.082722 
-0.013342 -0.373722 -1.156252 
-0.014090 -0.190299 -1.200379 
-0.014230 0.185514 -1.198106 
-0.013851 0.368544 -1.151501 
-0.013152 0.541346 -1.076656 
-0.012130 0.700197 -0.975178 
-0.010678 0.841407 -0.850641 
-0.008623 0.961787 -0.704845 
-0.007039 1.057976 -0.543197 
-0.005459 1.128392 -0.368943 
-0.002907 1.172245 -0.185393 
0.001982 1.174654 0.190486 
0.003791 1.132683 0.374007 
0.005586 1.064029 0.548628 
0.007602 0.968334 0.711841 
0.009756 0.848378 0.857140 
0.011857 0.707315 0.981702 
0.012577 0.547475 1.082651 
0.013452 0.373702 1.156057 
0.014151 0.190371 1.200319 
0.014377 -0.185638 1.198077 
0.013853 -0.368424 1.151754 
0.013136 -0.541491 1.076699 
0.012177 -0.700289 0.974948 
0.010614 -0.841441 0.850468 
0.008573 -0.961717 0.704707 
0.007009 -1.057883 0.543109 
0.005418 -1.128368 0.368821 
0.002848 -1.172190 0.185156 
-1.175674 0.000947 0.173876 
-1.125852 0.001044 0.355963 
-1.049686 0.001590 0.528810 
-0.949936 0.001572 0.688850 
-0.828385 0.002235 0.833718 
-0.686197 0.002240 0.959047 
-0.527964 0.002283 1.061526 
-0.356004 0.002213 1.140430 
-0.173944 0.002362 1.191879 
0.203756 0.002037 1.206627 
0.389279 0.002015 1.168116 
0.566330 0.001765 1.099637 
0.729108 0.001414 1.001795 
0.872186 0.001175 0.877441 
0.993161 0.000970 0.731583 
1.088235 0.000412 0.567509 
1.154157 0.000017 0.389774 
1.190573 -0.000262 0.203477 
1.175738 -0.001019 -0.173650 
1.125731 -0.001335 -0.356037 
1.049573 -0.001616 -0.528808 
0.950083 -0.001698 -0.688923 
0.828341 -0.002179 -0.833821 
0.686155 -0.002103 -0.959115 
0.528015 -0.002250 -1.061650 
0.356205 -0.002295 -1.140384 
0.173939 -0.002305 -1.192000 
-0.203626 -0.001998 -1.206494 
-0.389065 -0.001970 -1.168119 
-0.566341 -0.001854 -1.099831 
-0.729015 -0.001758 -1.001400 
-0.872060 -0.001163 -0.877273 
-0.992911 -0.000923 -0.731385 
-1.087902 -0.000352 -0.567320 
-1.154011 0.000014 -0.389699 
-1.190577 0.000229 -0.203432 
0.802896 -0.392457 -0.399629 
0.405993 -0.785538 -0.439738 
0.374617 -0.376464 -0.836342 
0.878734 -0.295863 -0.319619 
0.288807 -0.884725 -0.333682 
0.662123 -0.333360 -0.637544 
0.542510 -0.623996 -0.532817 
0.864045 -0.476125 -0.092135 
0.164797 -0.617117 -0.770139 
0.591040 -0.171934 -0.761147 
0.855250 -0.156019 -0.442983 
0.196274 -0.844659 -0.483004 
0.941207 -0.138105 -0.246767 
0.785114 -0.290164 -0.502147 
0.671403 -0.636507 -0.332320 
0.458161 -0.852121 -0.195954 
0.622122 -0.748686 -0.164530 
0.508557 -0.473693 -0.697114 
0.775990 -0.142400 -0.570637 
0.546650 -0.744823 -0.341243 
0.979091 -0.122679 -0.093258 
0.764861 -0.610320 -0.138239 
0.147233 -0.938007 -0.279683 
0.930110 -0.304154 -0.140664 
0.719350 -0.464501 -0.473995 
0.265282 -0.939885 -0.151028 
0.529172 -0.299555 -0.771526 
0.319753 -0.699653 -0.625448 
0.821860 -0.463718 -0.274915 
0.477061 -0.182256 -0.841668 
0.134344 -0.753271 -0.640964 
0.177133 -0.479892 -0.861679 
0.157512 -0.319136 -0.939472 
0.334538 -0.553255 -0.752669 
0.620360 -0.476555 -0.590650 
0.122575 -0.972448 -0.126938 
0.432210 -0.596904 -0.657221 
0.308767 -0.217115 -0.920446 
0.184355 -0.135265 -0.976263 
0.482755 0.570918 -0.627012 
0.491563 0.770379 -0.347177 
0.789412 0.363902 -0.437040 
0.380276 0.458826 -0.779675 
0.340710 0.871332 -0.292900 
0.269903 0.306193 -0.902934 
0.149106 0.158933 -0.978113 
0.739655 0.209753 -0.593967 
0.654132 0.526223 -0.492186 
0.494733 0.833717 -0.157831 
0.579239 0.170206 -0.766753 
0.171936 0.863812 -0.437220 
0.149594 0.466843 -0.865338 
0.539898 0.670186 -0.457867 
0.144460 0.939861 -0.251359 
0.367976 0.134148 -0.906571 
0.103243 0.316751 -0.944712 
0.612424 0.690386 -0.320929 
0.097871 0.615755 -0.772960 
0.152736 0.743207 -0.630777 
0.283373 0.613400 -0.714691 
0.846720 0.477865 -0.151719 
0.587629 0.383962 -0.674484 
0.361415 0.752518 -0.510294 
0.745594 0.543220 -0.319143 
0.121636 0.971860 -0.105917 
0.283392 0.932854 -0.131538 
0.699139 0.679517 -0.131363 
0.933021 0.142972 -0.265485 
0.451514 0.297531 -0.817182 
0.839726 0.401815 -0.297729 
0.857247 0.165295 -0.430683 
0.929281 0.287337 -0.156726 
0.879965 0.277308 -0.321483 
0.974729 0.125586 -0.110903 
0.704696 0.375138 -0.554149 
0.481564 0.463302 0.786421 
0.460704 0.800866 0.400173 
0.843908 0.411773 0.397831 
0.355106 0.317668 0.916000 
0.308411 0.897869 0.308376 
0.913754 0.336453 0.279924 
0.969801 0.167744 0.234701 
0.565812 0.632817 0.567010 
0.127316 0.482802 0.888285 
0.774585 0.168721 0.667929 
0.466824 0.163669 0.912308 
0.430783 0.875748 0.196415 
0.868485 0.469329 0.190275 
0.284716 0.145028 0.980259 
0.254708 0.945800 0.151655 
0.940943 0.319653 0.146413 
0.637585 0.162725 0.805932 
0.538986 0.295507 0.835946 
0.334893 0.630318 0.730553 
0.775790 0.615173 0.134100 
0.670820 0.717405 0.188537 
0.607060 0.497162 0.666330 
0.206828 0.752055 0.644267 
0.767274 0.575480 0.320406 
0.638221 0.682736 0.387645 
0.403097 0.719071 0.594228 
0.555207 0.796952 0.238897 
0.111038 0.974627 0.129417 
0.134247 0.126762 1.006069 
0.482662 0.596651 0.679349 
0.167618 0.613838 0.792959 
0.718371 0.507896 0.524312 
0.663783 0.353202 0.711519 
0.178891 0.312490 0.959221 
0.169561 0.939665 0.277143 
0.802709 0.321647 0.560362 
0.859624 0.142124 0.553313 
0.225229 0.859727 0.465558 
0.900885 0.233879 0.426424 
0.276403 0.479819 0.863478 
0.519578 -0.781422 0.354108 
0.351033 -0.370109 0.889313 
0.334923 -0.864595 0.366532 
0.169222 -0.460922 0.886561 
0.537537 -0.156817 0.872846 
0.429838 -0.875291 0.195558 
0.623477 -0.544886 0.598244 
0.289387 -0.171930 0.971276 
0.231244 -0.945297 0.181820 
0.917339 -0.372004 0.183243 
0.785737 -0.399959 0.522209 
0.740495 -0.654922 0.156626 
0.885399 -0.188188 0.485268 
0.962839 -0.180995 0.258104 
0.529298 -0.320955 0.825966 
0.578473 -0.672707 0.486801 
0.613799 -0.767788 0.175237 
0.716083 -0.633453 0.321471 
[...]
POINT_DATA 1108
SCALARS u float 1
LOOKUP_TABLE default
0.022027
0.021821
0.013180
0.013477
0.026557
0.026429
0.014685
0.014683
0.012532
0.012388
0.020394
0.020511
0.022320
0.022161
0.021370
0.020379
0.018519
0.016884
0.015068
0.011747
0.011647
0.012926
0.014907
0.016850
0.019167
0.020723
0.022121
0.021914
0.021064
0.020078
0.018617
0.017078
0.014972
0.012102
0.012029
0.013216
0.014869
0.016881
0.019198
0.020777
0.025391
0.023451
0.020901
0.018724
0.017380
0.015785
0.014692
0.012295
0.012554
0.014967
0.018356
0.021889
0.024893
0.026274
0.025333
0.023073
0.021041
0.018817
0.017291
0.015841
0.014731
0.012235
0.012822
0.014911
0.018399
0.022090
0.024785
0.026276
0.024574
0.030557
0.036290
0.039836
0.040346
0.037516
0.032095
0.022505
0.022378
0.024708
0.026969
0.027815
0.025641
0.022942
0.024419
0.030299
0.035995
0.039586
0.040486
0.037554
0.032045
0.022364
0.022279
0.024471
0.026845
0.027804
0.025757
0.022895
0.014861
0.015090
0.014942
0.015038
0.015035
0.014387
0.014377
0.014031
0.013425
0.011642
0.010828
0.010440
0.010059
0.010496
0.011779
0.012356
0.013129
0.013956
0.014912
0.014984
0.014819
0.014727
0.014636
0.014229
0.014303
0.013978
0.013487
0.011732
0.011177
0.010667
0.010284
0.010548
0.011950
0.012406
0.013129
0.014017
0.011242
0.009732
0.009247
0.010352
0.012985
0.016254
0.018593
0.020273
0.020852
0.019320
0.017371
0.015501
0.013878
0.013008
0.012498
0.013351
0.014111
0.013505
0.011106
0.009911
0.008530
0.010305
0.013014
0.016213
0.018604
0.020199
0.020859
0.019396
0.017539
0.015477
0.013815
0.012909
0.012521
0.013424
0.014134
0.013588
0.016847
0.021435
0.025277
0.026657
0.025101
0.022587
0.018636
0.015004
0.015481
0.026819
0.032644
0.037324
0.039067
0.037377
0.034476
0.029638
0.022921
0.016641
0.017002
0.021488
0.025368
0.026505
0.025071
0.022574
0.018535
0.014821
0.015529
0.026633
0.032523
0.037492
0.038712
0.037167
0.034163
0.029279
0.022777
0.016598
0.022454
0.014205
0.019655
0.022519
0.012458
0.023457
0.018053
0.018105
0.017397
0.024175
0.025519
0.013243
0.023118
0.024515
0.018232
0.013307
0.015251
0.019704
0.026603
0.015733
0.021402
0.016983
0.012037
0.020394
0.021977
0.011805
0.022186
0.015331
0.020229
0.022242
0.015291
0.019346
0.021221
0.017281
0.021222
0.012097
0.017282
0.020758
0.021877
0.025631
0.023175
0.027895
0.023925
0.020429
0.022375
0.022604
0.028477
0.027071
0.020520
0.026460
0.019163
0.021214
0.025576
0.017275
0.023091
0.022310
0.024397
0.020138
0.019900
0.022382
0.023577
0.027514
0.022949
0.026023
0.015475
0.017565
0.022242
0.024931
0.025077
0.025907
0.027755
0.023596
0.026294
0.022725
0.028231
0.034501
0.019429
0.028426
0.035056
0.015076
0.025785
0.025504
0.027291
0.026195
0.038052
0.038714
0.016260
0.022941
0.034506
0.014426
0.023222
0.040609
0.038473
0.027030
0.020814
0.019870
0.032883
0.020809
0.023838
0.023120
0.023811
0.018176
0.012926
0.029871
0.029637
0.024140
0.030048
0.036947
0.030248
0.013275
0.034234
0.035394
0.016204
0.030750
0.030318
0.016004
0.030770
0.014055
0.024760
0.038139
0.012693
0.027293
0.032757
0.012589
0.021060
0.029828
0.016535
0.031873
0.024947
0.034765
0.020878
0.014663
0.019842
0.028975
0.027752
0.017314
0.014684
0.017943
0.018799
0.023376
0.036866
0.015379
0.028566
0.024919
0.023008
0.033610
0.021341
0.020936
0.025498
0.038570
0.035530
0.026234
0.012948
0.025807
0.023328
0.027571
0.024242
0.020670
0.022346
0.022499
0.028326
0.027229
0.020740
0.026806
0.019172
0.021347
0.025184
0.017110
0.023186
0.022303
0.024377
0.020028
0.019878
0.022412
0.023130
0.027648
0.022998
0.025856
0.015468
0.017671
0.022051
0.024722
0.025072
0.025956
0.027634
0.023282
0.026115
0.022649
0.028410
0.033864
0.019211
0.027919
0.035095
0.015213
0.025596
0.025368
0.027367
0.026084
0.038015
0.038669
0.016345
0.022732
0.034371
0.014350
0.023021
0.040180
0.038389
0.026646
0.020495
0.019943
0.032736
0.020278
0.023720
0.023083
0.023718
0.018262
0.013066
0.029894
0.028986
0.024093
0.029859
0.036618
0.030345
0.013512
0.033918
0.035025
0.016306
0.030707
0.030304
0.015877
0.030698
0.014008
0.024798
0.038361
0.012537
0.027205
0.032752
0.012419
0.021025
0.029635
0.016496
0.031707
0.024795
0.034606
0.020939
0.014409
0.019721
0.028792
0.027585
0.017212
0.014718
0.017971
0.018821
0.023325
0.036753
0.015402
0.028499
0.024727
0.022724
0.033454
0.021136
0.020890
0.025345
0.038487
0.035607
0.025992
0.012784
0.022462
0.014200
0.019799
0.022622
0.012519
0.023465
0.018035
0.018138
0.017425
0.024292
0.025566
0.012833
0.022975
0.024505
0.018170
0.013114
0.014838
0.019742
0.026633
0.015623
0.021310
0.016913
0.012042
0.020435
0.021966
0.011623
0.022303
0.015533
0.020194
0.022400
0.015383
0.019458
0.021306
0.017444
0.021203
0.011948
0.017445
0.020844
0.021933
0.016332
0.024847
0.026207
0.018646
0.009662
0.018421
0.010307
0.027812
0.014820
0.011559
0.025106
0.033847
0.013698
0.018287
0.031137
0.011100
0.037044
0.017337
0.011113
0.016733
0.012834
0.009244
0.024191
0.012002
0.021853
0.021141
0.014575
0.010256
0.018221
0.012286
0.027686
0.029873
0.020151
0.019593
0.025686
0.010947
0.023046
0.035768
0.011901
0.034045
0.022198
0.037712
0.013801
0.029261
0.011276
0.024295
0.010034
0.012349
0.009539
0.016142
0.009352
0.022589
0.015655
0.012441
0.015015
0.014773
0.028606
0.032245
0.010507
0.034044
0.020908
0.030505
0.024145
0.024401
0.017938
0.018615
0.022325
0.017216
0.020637
0.015347
0.015216
0.016649
0.015352
0.027130
0.018103
0.016698
0.016355
0.027152
0.021855
0.014424
0.023216
0.021725
0.017885
0.018487
0.016271
0.023735
0.014879
0.025290
0.016899
0.018029
0.015225
0.018992
0.021683
0.020673
0.025283
0.026545
0.023598
0.025554
0.021406
0.014673
0.026714
0.017519
0.024254
0.014636
0.025376
0.019628
0.027406
0.019260
0.025308
0.020722
0.018052
0.019750
0.021749
0.023620
0.026361
0.015820
0.013678
0.021938
0.027540
0.019845
0.017432
0.017269
0.015376
0.014671
0.032823
0.021200
0.011245
0.032786
0.023232
0.030107
0.019744
0.010408
0.029319
0.018821
0.011405
0.015080
0.020644
0.015270
0.014986
0.022633
0.012379
0.011292
0.031298
0.036757
0.038584
0.032508
0.015788
0.024965
0.010090
0.027434
0.034688
0.025227
0.015786
0.025390
0.015065
0.020038
0.017785
0.022869
0.025164
0.024786
0.032685
0.013621
0.017694
0.013198
0.013400
0.014329
0.013042
0.026685
0.018434
0.029237
0.019509
0.035973
0.038513
0.036053
0.028435
0.026840
0.031056
0.015465
0.024557
0.026737
0.021187
0.011461
0.036668
0.012083
0.009465
0.012184
0.020685
0.015632
0.011735
0.014183
0.020307
0.013932
0.018207
0.014847
0.017903
0.011463
0.015406
0.011067
0.013894
0.013218
0.014692
0.009275
0.012130
0.023290
0.018778
0.019768
0.024967
0.015259
0.014808
0.011674
0.018067
0.015161
0.022113
0.016768
0.015134
0.013225
0.010096
0.011122
0.013286
0.015634
0.018130
0.015402
0.020784
0.014922
0.012269
0.012455
0.010990
0.013055
0.010167
0.012328
0.012417
0.017513
0.012998
0.018262
0.022696
0.025049
0.016696
0.022856
0.016899
0.020524
0.015096
0.017356
0.018166
0.013858
0.011124
0.023245
0.010976
0.011285
0.018627
0.029118
0.032117
0.020367
0.010360
0.019676
0.010662
0.015647
0.012293
0.018145
0.035880
0.037550
0.023166
0.012081
0.031838
0.022101
0.038483
0.013715
0.018049
0.014980
0.012283
0.009761
0.024891
0.035723
0.024533
0.015972
0.011653
0.010869
0.018738
0.031723
0.026749
0.030976
0.034288
0.025390
0.024033
0.029478
0.013940
0.024833
0.013765
0.036390
0.035932
0.027249
0.038594
0.017606
0.030949
0.014877
0.025796
0.010630
0.013654
0.013515
0.018237
0.011458
0.019514
0.024888
0.012175
0.015426
0.031019
0.019318
0.031308
0.012956
0.027121
0.024274
0.020642
0.015551
0.011663
0.014050
0.020274
0.013875
0.018215
0.011407
0.014807
0.017985
0.011527
0.011289
0.015423
0.010694
0.013220
0.014798
0.009203
0.012226
0.023281
0.018645
0.019612
0.024936
0.015233
0.014806
0.010147
0.018051
0.015026
0.022175
0.016761
0.015147
0.013649
0.012904
0.015951
0.018201
0.015205
0.020777
0.014739
0.012315
0.012748
0.010769
0.014526
0.010066
0.012529
0.012254
0.017523
0.012881
0.018328
0.022607
0.024962
0.016514
0.022830
0.016787
0.020536
0.015154
0.017348
0.013602
0.018259
0.012778
0.023156
0.010143
0.011513
0.011342
0.016300
0.024845
0.028315
0.018761
0.009717
0.018516
0.010432
0.014875
0.011729
0.034037
0.013709
0.035236
0.018244
0.031322
0.011093
0.036730
0.017316
0.011211
0.016856
0.012887
0.009357
0.024405
0.012021
0.033595
0.021114
0.014600
0.010388
0.018307
0.012393
0.027332
0.022297
0.030075
0.030866
0.020355
0.019597
0.025942
0.010918
0.023259
0.035938
0.011863
0.032656
0.022212
0.037757
0.013721
0.029463
0.011251
0.024528
0.010003
0.012478
0.009685
0.016199
0.009427
0.022754
0.015582
0.012555
0.015096
0.029000
0.014812
0.028673
0.010588
0.024917
0.023261
0.021812
0.025729
0.024720
0.018672
0.016033
0.017203
0.014987
0.021351
0.015146
0.015873
0.017585
0.021486
0.026649
0.027230
0.018174
0.022272
0.017388
0.026867
0.018479
0.020014
0.016124
0.014631
0.016906
0.016525
0.024633
0.025166
0.016342
0.014691
0.015303
0.014828
0.025952
0.024859
0.027471
0.026354
0.024660
0.020550
0.021515
0.017267
0.024977
0.021939
0.026860
0.017442
0.027207
0.021247
0.023429
0.019858
0.018768
0.017771
0.014839
0.018612
0.015865
0.023593
0.023978
0.016795
0.013745
0.025249
0.023109
0.021829
0.014595
0.017786
0.021796
0.016522
0.019223
0.019700
0.030707
0.021654
0.023646
0.027038
0.026447
0.009804
0.005089
0.019626
0.018338
0.022259
0.019724
0.032378
0.018792
0.020234
0.021740
0.032942
0.025073
0.004541
0.012697
0.015728
0.015119
0.019028
0.030555
0.025965
0.029088
0.025267
0.027047
0.022079
0.032744
0.031531
0.028456
0.027159
0.017638
0.033410
0.032783
0.012699
0.025903
0.011538
0.025093
0.037613
0.020767
0.026696
0.021910
0.035939
0.015216
0.015358
0.032461
0.016543
0.019429
0.030056
0.036209
0.025086
0.024373
0.022207
0.024090
0.017593
0.024543
0.028748
0.024557
0.024779
0.021415
0.023061
0.023702
0.024781
0.031246
0.037002
0.019090
0.026011
0.030773
0.031308
0.031369
0.034943
0.021189
0.025455
0.028810
0.034720
0.031161
0.029717
0.027332
0.031738
0.029959
0.036799
0.032842
0.026566
0.013887
0.015287
0.012057
0.019754
0.014145
0.013749
0.023942
0.026995
0.022812
0.023555
0.025183
0.025904
0.012384
0.009494
0.024569
0.007401
