# vtk DataFile Version 2.0
Unstructured Grid Example
ASCII
DATASET UNSTRUCTURED_GRID
POINTS 1108 float
0.983494 -0.021393 0.003511 
-0.983752 0.021092 -0.003301 
-0.021305 1.022124 -0.005829 
0.021295 -1.022272 0.005887 
0.003489 -0.005675 0.993497 
-0.003563 0.005901 -0.994280 
1.184505 -0.014134 0.002329 
-1.184519 0.014278 -0.002187 
-0.014113 1.220912 -0.003637 
0.014409 -1.221104 0.003839 
0.002254 -0.003782 1.193900 
-0.002220 0.003663 -1.194311 
0.957136 0.175253 0.002168 
0.895265 0.364280 0.001051 
0.800847 0.539748 -0.000054 
0.677376 0.695317 -0.001546 
0.528353 0.826533 -0.002890 
0.358137 0.927677 -0.004006 
0.172839 0.993771 -0.004936 
-0.216065 1.009757 -0.006313 
-0.403607 0.957842 -0.006684 
-0.574635 0.867120 -0.006664 
-0.722603 0.740869 -0.006405 
-0.841406 0.585945 -0.006014 
-0.925566 0.409265 -0.005334 
-0.973351 0.218410 -0.004421 
-0.957489 -0.175428 -0.002048 
-0.895495 -0.364395 -0.001148 
-0.801440 -0.539943 0.000182 
-0.677917 -0.695261 0.001636 
-0.528499 -0.826231 0.002855 
-0.358045 -0.927269 0.003950 
-0.172647 -0.993839 0.005067 
0.216251 -1.009882 0.006467 
0.403747 -0.957713 0.006783 
0.574780 -0.867176 0.006823 
0.722920 -0.740883 0.006519 
0.841421 -0.585974 0.006082 
0.925803 -0.409506 0.005489 
0.973444 -0.218692 0.004626 
0.007736 -0.203454 0.976759 
0.011460 -0.394121 0.923221 
0.014894 -0.570794 0.834273 
0.017591 -0.725865 0.712564 
0.019689 -0.853545 0.562411 
0.020956 -0.947734 0.390011 
0.021826 -1.004233 0.201619 
0.020184 -0.999875 -0.189690 
0.018335 -0.938761 -0.377213 
0.015623 -0.841633 -0.549612 
0.012355 -0.713274 -0.700243 
0.008875 -0.558081 -0.823620 
0.004772 -0.381987 -0.915737 
0.000475 -0.191485 -0.973293 
-0.007475 0.203169 -0.977266 
-0.011326 0.394025 -0.923894 
-0.014797 0.570624 -0.834221 
-0.017394 0.725651 -0.712357 
-0.019458 0.853359 -0.562293 
-0.020764 0.947553 -0.389889 
-0.021624 1.004223 -0.201547 
-0.020048 0.999906 0.189938 
-0.018228 0.938871 0.377588 
-0.015756 0.842146 0.549616 
-0.012436 0.713520 0.700311 
-0.009169 0.558189 0.823701 
-0.004999 0.382236 0.915414 
-0.000589 0.191844 0.972877 
0.966229 -0.021924 0.197078 
0.911851 -0.021872 0.383086 
0.821952 -0.020641 0.554605 
0.700446 -0.019011 0.705223 
0.551565 -0.016720 0.828646 
0.381101 -0.013231 0.919937 
0.195960 -0.009306 0.975618 
-0.189214 -0.001160 0.972882 
-0.373616 0.002654 0.914769 
-0.544156 0.007325 0.821981 
-0.693644 0.010770 0.697849 
-0.816042 0.014327 0.547126 
-0.907098 0.017191 0.375799 
-0.963706 0.019449 0.190087 
-0.966285 0.021720 -0.196856 
-0.911775 0.021831 -0.382862 
-0.821809 0.020460 -0.554390 
-0.700290 0.018913 -0.705123 
-0.551205 0.016386 -0.828869 
-0.381216 0.012807 -0.920402 
-0.196274 0.009316 -0.976396 
0.188901 0.001655 -0.973209 
0.373948 -0.002698 -0.915119 
0.544205 -0.007150 -0.822197 
0.693387 -0.010853 -0.697789 
0.815675 -0.014393 -0.547033 
0.906994 -0.017517 -0.375660 
0.963706 -0.019865 -0.189753 
1.162826 0.173305 0.001706 
1.114198 0.355349 0.000942 
1.040111 0.528257 0.000201 
0.942698 0.689155 -0.000509 
0.823020 0.834680 -0.000879 
0.683100 0.961436 -0.001790 
0.526063 1.066194 -0.002334 
0.355130 1.146169 -0.002835 
0.173612 1.198455 -0.003420 
-0.203006 1.212905 -0.003972 
-0.387785 1.173661 -0.004477 
-0.564022 1.103730 -0.004451 
-0.724852 1.003622 -0.004719 
-0.865903 0.877702 -0.004243 
-0.984637 0.730835 -0.003944 
-1.077386 0.565970 -0.003770 
-1.141770 0.388192 -0.003362 
-1.177360 0.202742 -0.002941 
-1.163230 -0.173525 -0.001657 
-1.114498 -0.355792 -0.000718 
-1.040434 -0.528384 -0.000105 
-0.943110 -0.689643 0.000539 
-0.822790 -0.835141 0.000943 
-0.682875 -0.961502 0.001922 
-0.525927 -1.065936 0.002369 
-0.355082 -1.145946 0.002943 
-0.173602 -1.198550 0.003300 
0.203044 -1.212870 0.004048 
0.387991 -1.173625 0.004460 
0.564097 -1.103760 0.004564 
0.724952 -1.003671 0.004759 
0.866068 -0.877883 0.004327 
0.984861 -0.731007 0.004007 
1.077546 -0.566175 0.003839 
1.141989 -0.388319 0.003425 
1.177449 -0.202723 0.003009 
0.013684 -1.203743 -0.185196 
0.012762 -1.156243 -0.368655 
0.011572 -1.080291 -0.542264 
0.010379 -0.978111 -0.701971 
0.008303 -0.852586 -0.843619 
0.006090 -0.706865 -0.964620 
0.004209 -0.544240 -1.061921 
0.002116 -0.369100 -1.133419 
0.000216 -0.185429 -1.177794 
-0.004758 0.193209 -1.181922 
-0.006604 0.377394 -1.140729 
-0.008436 0.554264 -1.071687 
-0.010066 0.717683 -0.976112 
-0.011350 0.864298 -0.855325 
-0.013096 0.989730 -0.713456 
-0.013530 1.091018 -0.552804 
-0.014020 1.164108 -0.377440 
-0.014340 1.207941 -0.193039 
-0.013698 1.203692 0.185092 
-0.012786 1.156343 0.368802 
-0.011524 1.081064 0.541964 
-0.010617 0.978659 0.702026 
-0.008457 0.852846 0.843820 
-0.005725 0.706903 0.964523 
-0.004257 0.544254 1.061920 
-0.002217 0.369051 1.133176 
-0.000228 0.185234 1.177407 
0.004567 -0.192493 1.181268 
0.006595 -0.377598 1.140325 
0.008609 -0.554065 1.071653 
0.010144 -0.717720 0.976094 
0.011330 -0.864424 0.855503 
0.013200 -0.989878 0.713562 
0.013627 -1.091222 0.552905 
0.014125 -1.164221 0.377452 
0.014417 -1.207973 0.193093 
-1.168910 0.013304 0.183477 
-1.124839 0.012421 0.364924 
-1.053632 0.010812 0.537373 
-0.956474 0.009542 0.697107 
-0.836130 0.007150 0.839448 
-0.695238 0.005064 0.960807 
-0.536008 0.003106 1.059368 
-0.364912 0.000829 1.132823 
-0.183740 -0.001341 1.177949 
0.188376 -0.005993 1.180249 
0.370146 -0.008214 1.137022 
0.542627 -0.009882 1.065672 
0.701746 -0.010959 0.967705 
0.843090 -0.012712 0.845878 
0.963306 -0.013996 0.703123 
1.059091 -0.014194 0.543414 
1.129154 -0.014587 0.370074 
1.171341 -0.014590 0.188423 
1.168705 -0.013283 -0.183428 
1.124579 -0.012371 -0.364767 
1.053160 -0.010783 -0.537264 
0.956170 -0.009372 -0.696972 
0.836073 -0.007167 -0.839225 
0.695410 -0.005274 -0.960818 
0.536136 -0.002951 -1.059784 
0.364560 -0.000691 -1.133180 
0.184081 0.000849 -1.178227 
-0.188340 0.005791 -1.180861 
-0.370201 0.008630 -1.137813 
-0.542820 0.009819 -1.065887 
-0.702142 0.011468 -0.967613 
-0.843078 0.012602 -0.845741 
-0.963206 0.013826 -0.703010 
-1.058960 0.014025 -0.543303 
-1.129062 0.014446 -0.369998 
-1.171385 0.014500 -0.188372 
0.818595 -0.418496 -0.409158 
0.431227 -0.817317 -0.438629 
0.394366 -0.386034 -0.830066 
0.888675 -0.320007 -0.330945 
0.313880 -0.919567 -0.330168 
0.679579 -0.351423 -0.642330 
0.566238 -0.651369 -0.534724 
0.875997 -0.508609 -0.102992 
0.189506 -0.628526 -0.757351 
0.606018 -0.182181 -0.762374 
0.863412 -0.174178 -0.453432 
0.222189 -0.871040 -0.475804 
0.942606 -0.158997 -0.260070 
0.799393 -0.311237 -0.510948 
0.694240 -0.670882 -0.338769 
0.482702 -0.894043 -0.196847 
0.645256 -0.789719 -0.169568 
0.529534 -0.491708 -0.696523 
0.787468 -0.157451 -0.578279 
0.571759 -0.781160 -0.344011 
0.974254 -0.144560 -0.108616 
0.782991 -0.647156 -0.146638 
0.171921 -0.971152 -0.272777 
0.935499 -0.330836 -0.153661 
0.738896 -0.491280 -0.481255 
0.288910 -0.979927 -0.146926 
0.546865 -0.311650 -0.771116 
0.344479 -0.721603 -0.620456 
0.838364 -0.493746 -0.284420 
0.492578 -0.189194 -0.838552 
0.160139 -0.770202 -0.629884 
0.199933 -0.486171 -0.847425 
0.178005 -0.320230 -0.923213 
0.357108 -0.568459 -0.746409 
0.641453 -0.499250 -0.594671 
0.145155 -1.009399 -0.119873 
0.455090 -0.617809 -0.655353 
0.326201 -0.219615 -0.910420 
0.201423 -0.133233 -0.961536 
0.479309 0.581763 -0.634621 
0.479112 0.784258 -0.359438 
0.782066 0.360195 -0.448184 
0.382136 0.470276 -0.782835 
0.327049 0.893314 -0.305133 
0.277552 0.316191 -0.898805 
0.161524 0.167929 -0.965887 
0.740660 0.205219 -0.601970 
0.646592 0.530059 -0.502393 
0.476673 0.845810 -0.172580 
0.585453 0.169501 -0.769734 
0.162673 0.893253 -0.446122 
0.154034 0.483853 -0.862384 
0.530655 0.681154 -0.468672 
0.130036 0.971538 -0.261703 
0.378471 0.137856 -0.901977 
0.112359 0.330632 -0.935350 
0.598458 0.696723 -0.334221 
0.098651 0.638522 -0.773909 
0.148756 0.769063 -0.636464 
0.282676 0.631818 -0.719076 
0.826461 0.470451 -0.168230 
0.587555 0.388048 -0.680757 
0.353906 0.772080 -0.520064 
0.732168 0.542380 -0.332467 
0.103877 1.003239 -0.116603 
0.266105 0.956410 -0.144243 
0.677947 0.679933 -0.148112 
0.924635 0.129320 -0.279630 
0.456723 0.303298 -0.818688 
0.826802 0.395602 -0.311176 
0.854288 0.155692 -0.441727 
0.912505 0.274877 -0.172924 
0.870063 0.268125 -0.334664 
0.960823 0.109099 -0.127459 
0.700871 0.374999 -0.563013 
0.446340 0.450008 0.750087 
0.429602 0.800429 0.376197 
0.806822 0.394174 0.367260 
0.324505 0.305224 0.880660 
0.281883 0.908984 0.290277 
0.880648 0.319042 0.252951 
0.942196 0.147865 0.210091 
0.529785 0.622328 0.535709 
0.099746 0.479553 0.861130 
0.738880 0.148840 0.632206 
0.436161 0.147900 0.875810 
0.404678 0.883851 0.177581 
0.836255 0.455060 0.165594 
0.258595 0.132911 0.947895 
0.231706 0.965024 0.137171 
0.912181 0.302887 0.123058 
0.603382 0.144069 0.768093 
0.504499 0.279415 0.797787 
0.302560 0.624884 0.700715 
0.745613 0.606449 0.111592 
0.640646 0.712360 0.165666 
0.569504 0.482174 0.630845 
0.177244 0.755173 0.621282 
0.732436 0.562612 0.293054 
0.603511 0.673716 0.360028 
0.370369 0.714978 0.566365 
0.526002 0.796725 0.216902 
0.089340 1.001836 0.118351 
0.111851 0.117278 0.978796 
0.447535 0.586108 0.646473 
0.138543 0.612876 0.767284 
0.680220 0.491939 0.491397 
0.626222 0.335468 0.674071 
0.152248 0.304855 0.929201 
0.144850 0.959454 0.263084 
0.764141 0.302652 0.525665 
0.825140 0.121178 0.520712 
0.197144 0.869606 0.446445 
0.866534 0.214307 0.396204 
0.245738 0.472204 0.831700 
0.531795 -0.824277 0.351944 
0.338301 -0.391997 0.870961 
0.348322 -0.907955 0.369180 
0.161398 -0.482706 0.875633 
0.514657 -0.176559 0.843573 
0.447949 -0.920836 0.196545 
0.620097 -0.576847 0.585438 
0.270928 -0.188486 0.946319 
0.249341 -0.989265 0.187384 
0.916198 -0.401873 0.168251 
0.776416 -0.429087 0.503689 
0.752730 -0.693792 0.148538 
0.865964 -0.213060 0.460987 
0.949333 -0.206280 0.237984 
0.513508 -0.343942 0.803299 
0.583514 -0.710206 0.480243 
0.629702 -0.811332 0.171118 
0.723221 -0.671466 0.312404 
[...]
POINT_DATA 1108
SCALARS u float 1
LOOKUP_TABLE default
0.027248
0.026828
0.031263
0.031372
0.009310
0.008958
0.021102
0.021173
0.025489
0.025840
0.007523
0.007121
0.030944
0.034038
0.034468
0.032021
0.027811
0.025159
0.026232
0.036320
0.040447
0.040973
0.037697
0.032520
0.027164
0.024873
0.030553
0.033786
0.033853
0.031544
0.027721
0.025182
0.026453
0.036555
0.040427
0.041116
0.037860
0.032564
0.027446
0.025146
0.012083
0.016205
0.021482
0.026289
0.030361
0.032586
0.032693
0.028301
0.024239
0.019567
0.015421
0.012112
0.009464
0.008328
0.011555
0.016028
0.021287
0.025961
0.030049
0.032303
0.032537
0.028179
0.024145
0.019943
0.015555
0.012299
0.009842
0.008569
0.026391
0.024964
0.022750
0.020232
0.017423
0.013897
0.010679
0.009917
0.013125
0.016552
0.019569
0.022684
0.024991
0.026363
0.026176
0.024963
0.022656
0.020202
0.017156
0.013351
0.010366
0.009922
0.012662
0.016318
0.019820
0.023010
0.025324
0.026736
0.026693
0.031194
0.033466
0.032452
0.029038
0.024208
0.019110
0.016680
0.019641
0.031867
0.036839
0.039768
0.038456
0.034220
0.029263
0.023016
0.017701
0.017209
0.026232
0.030708
0.033122
0.031853
0.029027
0.024399
0.019289
0.016681
0.019692
0.031865
0.036901
0.039844
0.038554
0.034469
0.029527
0.023273
0.017845
0.017163
0.023162
0.019794
0.016221
0.013124
0.010465
0.008823
0.008433
0.008309
0.007781
0.007979
0.009334
0.012926
0.016781
0.020584
0.024390
0.026888
0.027606
0.027385
0.023142
0.019870
0.016773
0.013608
0.010599
0.008653
0.008457
0.008575
0.008208
0.007700
0.009504
0.012890
0.016849
0.020729
0.024597
0.027133
0.027755
0.027462
0.021476
0.021423
0.020359
0.019097
0.016949
0.015100
0.013548
0.010340
0.008403
0.007817
0.009271
0.010716
0.011947
0.014078
0.016040
0.017484
0.018976
0.020153
0.021629
0.021639
0.020746
0.019301
0.017118
0.015051
0.013130
0.010251
0.007935
0.007279
0.009316
0.010550
0.012331
0.014010
0.015956
0.017434
0.018930
0.020056
0.022484
0.027942
0.011640
0.022727
0.030870
0.017232
0.023202
0.028944
0.014045
0.015552
0.021786
0.024726
0.024226
0.020102
0.029466
0.036946
0.036573
0.016134
0.019848
0.031526
0.025120
0.032491
0.030045
0.024945
0.022290
0.035544
0.013958
0.020268
0.025936
0.013366
0.018253
0.010430
0.008524
0.014851
0.019064
0.032924
0.018423
0.010096
0.008949
0.023108
0.025709
0.030165
0.019095
0.025030
0.014819
0.011352
0.025377
0.027888
0.026505
0.020056
0.026454
0.017499
0.026064
0.028306
0.014343
0.014148
0.028648
0.021448
0.024053
0.020298
0.034402
0.023747
0.023394
0.031613
0.028480
0.025640
0.031720
0.029150
0.018504
0.032448
0.028140
0.032785
0.031154
0.029754
0.027532
0.019875
0.024685
0.031008
0.014792
0.023188
0.031581
0.029406
0.025394
0.012646
0.023098
0.015425
0.025052
0.033885
0.011555
0.024441
0.032753
0.019373
0.018491
0.018382
0.033282
0.030777
0.024525
0.017707
0.031693
0.029038
0.021675
0.027576
0.026824
0.009538
0.022044
0.014908
0.028395
0.023358
0.011205
0.023913
0.027198
0.024837
0.020902
0.027980
0.014896
0.042498
0.021475
0.041188
0.021140
0.018088
0.042853
0.033848
0.014491
0.039622
0.028435
0.029553
0.037661
0.024449
0.025439
0.022841
0.038848
0.041931
0.038091
0.011131
0.015447
0.034412
0.037014
0.039158
0.032810
0.035948
0.022797
0.038842
0.029752
0.034956
0.032164
0.027045
0.034584
0.027858
0.027192
0.020403
0.017657
0.027738
0.035471
0.023248
0.025710
0.029390
0.019107
0.025075
0.015209
0.011629
0.025209
0.027764
0.026496
0.020204
0.026664
0.017519
0.025733
0.028387
0.014643
0.014131
0.028331
0.021596
0.024272
0.020577
0.033916
0.023744
0.023640
0.031704
0.028660
0.025679
0.031167
0.028703
0.018633
0.032063
0.027579
0.032225
0.030469
0.029430
0.027241
0.019699
0.024728
0.030968
0.014287
0.022877
0.031599
0.029243
0.025188
0.012303
0.023207
0.014949
0.024973
0.033258
0.011285
0.024577
0.032530
0.019486
0.018447
0.018437
0.032839
0.030205
0.024227
0.017809
0.031807
0.028863
0.021613
0.027498
0.026904
0.009128
0.022017
0.014759
0.028035
0.023260
0.010881
0.023746
0.027124
0.024928
0.020814
0.028314
0.014991
0.042156
0.021163
0.040775
0.020567
0.017944
0.042586
0.033491
0.013968
0.039387
0.028179
0.029306
0.037446
0.024271
0.025229
0.022589
0.038478
0.041735
0.037710
0.010623
0.015077
0.034006
0.036619
0.038823
0.032595
0.035495
0.022592
0.038411
0.029236
0.034644
0.031891
0.026772
0.034217
0.027590
0.026828
0.020347
0.017349
0.027487
0.035302
0.022395
0.028322
0.011838
0.022549
0.031308
0.017193
0.023344
0.028774
0.014268
0.015582
0.021502
0.025239
0.023964
0.019966
0.029363
0.036914
0.036005
0.016280
0.019690
0.031171
0.024774
0.032478
0.029976
0.024648
0.022239
0.035470
0.014047
0.020615
0.025882
0.013553
0.018534
0.010701
0.008685
0.015174
0.019122
0.032649
0.018736
0.010252
0.009091
0.035218
0.027562
0.017209
0.020160
0.039414
0.017260
0.037085
0.012433
0.016725
0.035249
0.008173
0.017512
0.029785
0.023947
0.015563
0.031631
0.011923
0.018410
0.040022
0.030444
0.028309
0.041498
0.016163
0.033008
0.015296
0.032495
0.020405
0.039616
0.017115
0.032713
0.021815
0.022562
0.027942
0.032401
0.026753
0.039179
0.024094
0.014301
0.026370
0.016775
0.021113
0.013440
0.022940
0.019138
0.035194
0.018462
0.037123
0.035261
0.037935
0.024956
0.041141
0.029209
0.036746
0.030583
0.017857
0.034234
0.023655
0.014653
0.033578
0.010532
0.010328
0.009311
0.025283
0.018882
0.012403
0.016651
0.030827
0.018129
0.029527
0.010904
0.018757
0.028747
0.008716
0.022873
0.014992
0.012909
0.019305
0.024317
0.016036
0.012145
0.030119
0.021269
0.021343
0.032267
0.021672
0.025904
0.010324
0.022162
0.016959
0.032177
0.022709
0.025454
0.016149
0.014651
0.020412
0.022952
0.017664
0.029118
0.016446
0.018921
0.020870
0.011818
0.019047
0.015730
0.018787
0.015522
0.026869
0.016876
0.028800
0.026408
0.030599
0.018189
0.032449
0.019153
0.026361
0.024856
0.022676
0.015757
0.025148
0.014576
0.026836
0.012905
0.009061
0.010507
0.022581
0.022407
0.016259
0.012941
0.027275
0.011232
0.027671
0.015403
0.009058
0.023229
0.018200
0.029266
0.013704
0.013767
0.032682
0.011131
0.021788
0.013260
0.024415
0.018482
0.013912
0.020485
0.031392
0.010443
0.014413
0.023724
0.011323
0.022798
0.027704
0.009103
0.020127
0.017628
0.025278
0.025929
0.020730
0.028334
0.016653
0.030782
0.010417
0.015404
0.024697
0.012190
0.027192
0.014511
0.030737
0.013752
0.030226
0.019994
0.015807
0.014536
0.024918
0.026494
0.020386
0.024151
0.007766
0.017600
0.028883
0.019054
0.016961
0.017364
0.017177
0.016285
0.011858
0.020186
0.028818
0.008427
0.015022
0.007978
0.015560
0.009079
0.017969
0.012043
0.027991
0.017442
0.032198
0.008285
0.024104
0.018118
0.036166
0.012770
0.009989
0.011918
0.015356
0.007721
0.017600
0.035199
0.015509
0.010078
0.016797
0.008066
0.016315
0.024997
0.024247
0.033518
0.017854
0.026229
0.020274
0.015169
0.015810
0.008162
0.009361
0.030219
0.022306
0.031240
0.013248
0.034421
0.009057
0.021799
0.007104
0.017427
0.011842
0.014930
0.009483
0.014127
0.011175
0.015838
0.018437
0.008132
0.021127
0.011611
0.030871
0.014265
0.028248
0.027714
0.026798
0.020805
0.013567
0.029395
0.016404
0.027616
0.015422
0.027513
0.016897
0.014181
0.020593
0.017307
0.013455
0.013029
0.020870
0.010426
0.013824
0.023505
0.030115
0.032201
0.022316
0.015337
0.022854
0.011953
0.024173
0.031172
0.016889
0.018144
0.023295
0.017248
0.010477
0.008914
0.020219
0.017068
0.020628
0.023333
0.019077
0.028427
0.011496
0.017061
0.016136
0.013347
0.015507
0.010625
0.024287
0.015381
0.026523
0.015322
0.027719
0.030308
0.031310
0.019450
0.022493
0.026301
0.020419
0.023929
0.024682
0.018533
0.010610
0.027256
0.008709
0.007194
0.011914
0.020051
0.026408
0.008448
0.015124
0.007979
0.015677
0.029843
0.008942
0.018072
0.029234
0.011834
0.028120
0.017127
0.008243
0.024291
0.017377
0.036509
0.012870
0.010020
0.011842
0.015471
0.007697
0.017830
0.023142
0.015415
0.009888
0.016926
0.007906
0.016382
0.025064
0.017472
0.025207
0.019962
0.014890
0.015855
0.008081
0.009389
0.030828
0.021417
0.031125
0.013094
0.034338
0.008876
0.021806
0.007098
0.017559
0.011929
0.015074
0.009423
0.014219
0.011049
0.015792
0.018440
0.007727
0.011298
0.020894
0.032088
0.014360
0.023352
0.035648
0.033892
0.035571
0.027917
0.015780
0.020394
0.039742
0.017459
0.037332
0.016819
0.035377
0.017488
0.030090
0.015660
0.024232
0.015723
0.031979
0.012131
0.018024
0.040312
0.030791
0.028553
0.041717
0.016263
0.033314
0.011214
0.032837
0.020650
0.039818
0.017152
0.032862
0.022067
0.013376
0.008867
0.021672
0.028181
0.032774
0.026780
0.039507
0.024376
0.014463
0.026642
0.016029
0.020714
0.013486
0.023207
0.019297
0.035537
0.018688
0.037496
0.035631
0.038136
0.025230
0.041428
0.029481
0.037062
0.030715
0.017889
0.023580
0.034523
0.010439
0.033855
0.008429
0.007518
0.015151
0.025108
0.028885
0.017009
0.011456
0.018137
0.010904
0.029453
0.022943
0.008560
0.026676
0.026788
0.020841
0.024427
0.021358
0.016528
0.031884
0.023544
0.013122
0.015409
0.019851
0.011972
0.016917
0.012711
0.026403
0.019952
0.021460
0.009832
0.018842
0.009763
0.028678
0.027094
0.024867
0.022500
0.022958
0.015055
0.016918
0.026861
0.018310
0.030015
0.026897
0.030323
0.021034
0.020882
0.017956
0.017310
0.014307
0.015356
0.015407
0.017176
0.011535
0.018689
0.017741
0.008184
0.022829
0.020232
0.022032
0.031654
0.019102
0.032340
0.024647
0.030200
0.009255
0.020737
0.028687
0.017161
0.021514
0.008556
0.011057
0.029347
0.012166
0.007827
0.022132
0.028916
0.022410
0.022729
0.027103
0.028318
0.020927
0.025554
0.016853
0.014376
0.038799
0.032302
0.031241
0.028838
0.028727
0.030794
0.028480
0.029474
0.029782
0.025350
0.010914
0.016241
0.023034
0.037048
0.043325
0.025632
0.030595
0.037358
0.030329
0.028671
0.023743
0.018407
0.017680
0.034669
0.025711
0.018591
0.028133
0.028465
0.011485
0.029849
0.029266
0.021577
0.026887
0.008542
0.011991
0.021474
0.016644
0.035941
0.030989
0.026975
0.030773
0.012924
0.012334
0.009628
0.021848
0.033889
0.010187
0.015684
0.027804
0.031237
0.030223
0.028108
0.010533
0.017887
0.025286
0.013686
0.011329
0.025236
0.026322
0.015665
0.020383
0.025454
0.029052
0.026904
0.031885
0.033298
0.041364
0.035895
0.037987
0.023093
0.032565
0.039705
0.027663
0.017984
0.022084
0.015209
0.010155
0.011638
0.033374
0.016212
0.027886
0.011004
