# vtk DataFile Version 2.0
Unstructured Grid Example
ASCII
DATASET UNSTRUCTURED_GRID
POINTS 1108 float
0.998806 -0.000457 0.011273 
-0.998805 0.000443 -0.011167 
-0.000585 0.993460 0.001722 
0.000506 -0.993312 -0.001789 
0.011093 0.001734 1.007813 
-0.011046 -0.001797 -1.007750 
1.198860 -0.000318 0.007470 
-1.198878 0.000202 -0.007476 
-0.000415 1.193665 0.001168 
0.000382 -1.193758 -0.001267 
0.007409 0.001170 1.207353 
-0.007448 -0.001214 -1.207393 
0.979439 0.193743 0.011337 
0.922284 0.380253 0.011038 
0.829549 0.551989 0.010229 
0.704994 0.702504 0.009194 
0.553533 0.825894 0.007466 
0.381053 0.917584 0.005773 
0.193986 0.974141 0.003857 
-0.195128 0.974742 -0.000292 
-0.382118 0.918461 -0.002511 
-0.554766 0.826903 -0.004778 
-0.706051 0.703601 -0.006749 
-0.830174 0.553115 -0.008223 
-0.922841 0.381311 -0.009721 
-0.979679 0.194616 -0.010606 
-0.979432 -0.193834 -0.011243 
-0.922431 -0.380341 -0.010946 
-0.829835 -0.552117 -0.010155 
-0.705263 -0.702580 -0.009113 
-0.553674 -0.825889 -0.007564 
-0.381121 -0.917571 -0.005928 
-0.193994 -0.974183 -0.003830 
0.194969 -0.974560 0.000299 
0.382090 -0.918233 0.002481 
0.554716 -0.826819 0.004897 
0.706071 -0.703584 0.006721 
0.830191 -0.553086 0.008233 
0.922884 -0.381333 0.009745 
0.979673 -0.194651 0.010635 
0.010937 -0.192932 0.987623 
0.010447 -0.379910 0.929271 
0.009428 -0.551829 0.835076 
0.008160 -0.702308 0.708946 
0.006636 -0.825493 0.556185 
0.004626 -0.917214 0.382160 
0.002577 -0.973783 0.193824 
-0.001671 -0.975091 -0.197301 
-0.003771 -0.919652 -0.385801 
-0.005790 -0.828862 -0.559941 
-0.007468 -0.706042 -0.712805 
-0.008852 -0.555702 -0.838450 
-0.010032 -0.383591 -0.931812 
-0.010693 -0.196514 -0.988957 
-0.010922 0.192961 -0.987598 
-0.010329 0.379922 -0.929067 
-0.009511 0.551804 -0.835048 
-0.008209 0.702330 -0.709039 
-0.006616 0.825547 -0.556245 
-0.004702 0.917227 -0.382229 
-0.002674 0.973792 -0.193861 
0.001578 0.975086 0.197268 
0.003814 0.919590 0.385950 
0.005794 0.828894 0.559904 
0.007529 0.705995 0.712753 
0.008933 0.555671 0.838515 
0.010067 0.383530 0.931685 
0.010765 0.196450 0.988875 
0.983991 -0.000109 0.207334 
0.931183 0.000274 0.396622 
0.842056 0.000533 0.570966 
0.719345 0.000811 0.723555 
0.568326 0.001223 0.847830 
0.395132 0.001425 0.938590 
0.206752 0.001571 0.992397 
-0.184137 0.001728 0.984163 
-0.371368 0.001893 0.922770 
-0.543956 0.001656 0.826537 
-0.695366 0.001545 0.699845 
-0.820440 0.001449 0.546543 
-0.915185 0.001011 0.372794 
-0.975375 0.000757 0.184612 
-0.984006 0.000086 -0.207248 
-0.931092 -0.000267 -0.396520 
-0.841856 -0.000500 -0.570920 
-0.719208 -0.000806 -0.723497 
-0.568231 -0.001129 -0.848000 
-0.395138 -0.001393 -0.938613 
-0.206724 -0.001602 -0.992383 
0.184231 -0.001830 -0.984164 
0.371416 -0.001892 -0.922808 
0.544074 -0.001722 -0.826598 
0.695451 -0.001578 -0.699837 
0.820429 -0.001433 -0.546562 
0.915174 -0.001088 -0.372732 
0.975482 -0.000809 -0.184589 
1.183945 0.186844 0.007495 
1.139697 0.369306 0.007460 
1.067203 0.542600 0.007100 
0.968647 0.702298 0.006782 
0.846267 0.844459 0.006188 
0.703059 0.965991 0.005136 
0.542782 1.063571 0.004363 
0.369278 1.135041 0.003328 
0.186777 1.178826 0.002442 
-0.187577 1.179232 -0.000102 
-0.370061 1.135933 -0.001436 
-0.543680 1.064462 -0.002272 
-0.703880 0.967047 -0.003235 
-0.847216 0.845476 -0.004265 
-0.969661 0.702993 -0.005472 
-1.067897 0.543346 -0.006058 
-1.140271 0.369891 -0.006624 
-1.184235 0.187358 -0.007111 
-1.183990 -0.186839 -0.007529 
-1.139840 -0.369362 -0.007443 
-1.067431 -0.542675 -0.007116 
-0.968871 -0.702436 -0.006730 
-0.846276 -0.844558 -0.006000 
-0.703068 -0.966086 -0.005111 
-0.542842 -1.063561 -0.004312 
-0.369314 -1.135073 -0.003346 
-0.186785 -1.178794 -0.002452 
0.187485 -1.179188 0.000078 
0.369981 -1.135747 0.001397 
0.543556 -1.064376 0.002307 
0.703805 -0.966977 0.003305 
0.847163 -0.845522 0.004315 
0.969642 -0.703023 0.005578 
1.067898 -0.543373 0.006092 
1.140282 -0.369923 0.006630 
1.184226 -0.187419 0.007144 
-0.000969 -1.179684 -0.189090 
-0.001970 -1.136929 -0.372376 
-0.003108 -1.066380 -0.547031 
-0.003935 -0.969499 -0.708689 
-0.005025 -0.848497 -0.852942 
-0.005999 -0.706369 -0.976568 
-0.006424 -0.546196 -1.076169 
-0.006872 -0.372315 -1.148986 
-0.007257 -0.189049 -1.193031 
-0.007329 0.186584 -1.191860 
-0.007134 0.369648 -1.146539 
-0.006774 0.543015 -1.073044 
-0.006248 0.702692 -0.973065 
-0.005500 0.844860 -0.849616 
-0.004442 0.966168 -0.705086 
-0.003626 1.063423 -0.543969 
-0.002812 1.134636 -0.369853 
-0.001497 1.178540 -0.186522 
0.001021 1.179781 0.189145 
0.001953 1.136846 0.372462 
0.002877 1.066541 0.546766 
0.003915 0.969540 0.708690 
0.005025 0.848451 0.852964 
0.006107 0.706358 0.976425 
0.006478 0.546172 1.076132 
0.006929 0.372304 1.148885 
0.007289 0.189086 1.193000 
0.007405 -0.186648 1.191845 
0.007135 -0.369586 1.146669 
0.006766 -0.543090 1.073066 
0.006272 -0.702739 0.972946 
0.005467 -0.844878 0.849528 
0.004416 -0.966131 0.705015 
0.003610 -1.063375 0.543923 
0.002791 -1.134624 0.369790 
0.001467 -1.178512 0.186400 
-1.180306 0.000488 0.180590 
-1.133328 0.000538 0.363168 
-1.059153 0.000819 0.536559 
-0.960064 0.000810 0.696848 
-0.838153 0.001151 0.840900 
-0.695481 0.001154 0.964757 
-0.536123 0.001176 1.065251 
-0.363189 0.001140 1.140836 
-0.180625 0.001217 1.188653 
0.195980 0.001049 1.196249 
0.380328 0.001038 1.155096 
0.555884 0.000909 1.084881 
0.717583 0.000728 0.986774 
0.860713 0.000605 0.863420 
0.982327 0.000500 0.718858 
1.079008 0.000212 0.556491 
1.147906 0.000009 0.380583 
1.187980 -0.000135 0.195837 
1.180339 -0.000525 -0.180474 
1.133265 -0.000687 -0.363206 
1.059095 -0.000832 -0.536557 
0.960139 -0.000875 -0.696885 
0.838130 -0.001122 -0.840953 
0.695460 -0.001083 -0.964791 
0.536149 -0.001159 -1.065315 
0.363293 -0.001182 -1.140813 
0.180623 -0.001187 -1.188715 
-0.195913 -0.001029 -1.196181 
-0.380217 -0.001015 -1.155098 
-0.555889 -0.000955 -1.084981 
-0.717535 -0.000905 -0.986571 
-0.860649 -0.000599 -0.863333 
-0.982199 -0.000476 -0.718756 
-1.078837 -0.000181 -0.556394 
-1.147831 0.000007 -0.380544 
-1.187982 0.000118 -0.195813 
0.810625 -0.394537 -0.407011 
0.411482 -0.789390 -0.441314 
0.384105 -0.376949 -0.837117 
0.885649 -0.297137 -0.327974 
0.292553 -0.889438 -0.334187 
0.671843 -0.334614 -0.643319 
0.549961 -0.627074 -0.536229 
0.866966 -0.478406 -0.100094 
0.172565 -0.618314 -0.767074 
0.601688 -0.171717 -0.766046 
0.864219 -0.156190 -0.451507 
0.201406 -0.848329 -0.481809 
0.947395 -0.138272 -0.256113 
0.794243 -0.291456 -0.509652 
0.677349 -0.640052 -0.337819 
0.461156 -0.857089 -0.198780 
0.625556 -0.752862 -0.169576 
0.517471 -0.475428 -0.700085 
0.786369 -0.142363 -0.578300 
0.552001 -0.748944 -0.344793 
0.982397 -0.122767 -0.103095 
0.768379 -0.613570 -0.144939 
0.149948 -0.943076 -0.278677 
0.934141 -0.305375 -0.149612 
0.727586 -0.467100 -0.480238 
0.267045 -0.945295 -0.151661 
0.539254 -0.300105 -0.775239 
0.326729 -0.702223 -0.625529 
0.827934 -0.466149 -0.282225 
0.487432 -0.181860 -0.844603 
0.140865 -0.755531 -0.638252 
0.185914 -0.480249 -0.858398 
0.167013 -0.318595 -0.935556 
0.342783 -0.554749 -0.752797 
0.629183 -0.478868 -0.595416 
0.123556 -0.978177 -0.126148 
0.440055 -0.599193 -0.659082 
0.318794 -0.216474 -0.919834 
0.194404 -0.134073 -0.973077 
0.492097 0.576865 -0.632657 
0.497990 0.777348 -0.353214 
0.798686 0.368211 -0.445894 
0.390167 0.463676 -0.783318 
0.345653 0.878544 -0.297558 
0.280193 0.309597 -0.903432 
0.159369 0.161214 -0.975011 
0.750310 0.213012 -0.602125 
0.663166 0.531904 -0.499832 
0.498784 0.840243 -0.164158 
0.590272 0.173180 -0.772589 
0.177737 0.870726 -0.439433 
0.159049 0.470807 -0.864485 
0.547893 0.676973 -0.464488 
0.148136 0.946971 -0.253832 
0.378738 0.136716 -0.908294 
0.113189 0.319682 -0.941623 
0.619128 0.696684 -0.328369 
0.106415 0.620444 -0.772345 
0.160274 0.749105 -0.632012 
0.292299 0.619030 -0.717229 
0.851636 0.481941 -0.161203 
0.598166 0.388771 -0.681109 
0.368830 0.759469 -0.514829 
0.753129 0.548572 -0.327735 
0.123629 0.978625 -0.108484 
0.286377 0.939637 -0.135739 
0.703348 0.684886 -0.139717 
0.939778 0.144946 -0.275314 
0.462195 0.301439 -0.821488 
0.847207 0.405973 -0.306926 
0.866682 0.167921 -0.439916 
0.934283 0.290003 -0.166666 
0.887783 0.280541 -0.331023 
0.978687 0.127026 -0.121086 
0.714767 0.379770 -0.562182 
0.471685 0.461678 0.773016 
0.456910 0.802946 0.391804 
0.838004 0.411873 0.385375 
0.344309 0.315884 0.902990 
0.306296 0.901555 0.302427 
0.909928 0.337153 0.268041 
0.966514 0.168172 0.222786 
0.558929 0.632682 0.555707 
0.118269 0.481902 0.879413 
0.764017 0.167740 0.652834 
0.455114 0.162044 0.897724 
0.429998 0.880006 0.189825 
0.866795 0.471039 0.179413 
0.273615 0.143418 0.967843 
0.254422 0.951069 0.147061 
0.939780 0.320946 0.135287 
0.625836 0.161297 0.790192 
0.527752 0.293742 0.821155 
0.326852 0.629681 0.720220 
0.775604 0.618029 0.124421 
0.669935 0.720419 0.179428 
0.598211 0.496047 0.653111 
0.200276 0.752710 0.636619 
0.763612 0.576691 0.309509 
0.633922 0.683977 0.377365 
0.396712 0.719393 0.584613 
0.553739 0.800156 0.230818 
0.110759 0.980221 0.126603 
0.123653 0.125210 0.996313 
0.474503 0.595823 0.667546 
0.159562 0.613467 0.784473 
0.711029 0.507482 0.511732 
0.653554 0.351826 0.696874 
0.168689 0.311069 0.948778 
0.167657 0.944160 0.272947 
0.793737 0.320860 0.546416 
0.850173 0.141450 0.539001 
0.220962 0.862217 0.459447 
0.893971 0.233719 0.413213 
0.266843 0.478416 0.852397 
0.515782 -0.784697 0.348185 
0.340601 -0.371372 0.878720 
0.331225 -0.869126 0.363032 
0.159664 -0.463163 0.879648 
0.525794 -0.157643 0.858580 
0.428250 -0.879880 0.191776 
0.615392 -0.545892 0.587813 
0.278384 -0.173277 0.959898 
0.229524 -0.951018 0.180564 
0.915220 -0.373050 0.173307 
0.777725 -0.400523 0.510179 
0.739246 -0.657372 0.149094 
0.877216 -0.188534 0.472160 
0.959035 -0.181353 0.246626 
0.518409 -0.321672 0.813116 
0.572642 -0.674680 0.478762 
0.612391 -0.771195 0.169157 
0.712068 -0.635502 0.312970 
[...]
POINT_DATA 1108
SCALARS u float 1
LOOKUP_TABLE default
0.011345
0.011239
0.006788
0.006942
0.013679
0.013613
0.007564
0.007563
0.006455
0.006381
0.010504
0.010564
0.011496
0.011414
0.011007
0.010496
0.009538
0.008696
0.007761
0.006050
0.005999
0.006658
0.007678
0.008679
0.009872
0.010674
0.011394
0.011287
0.010850
0.010342
0.009589
0.008796
0.007711
0.006234
0.006196
0.006807
0.007658
0.008695
0.009888
0.010702
0.013078
0.012079
0.010765
0.009644
0.008952
0.008130
0.007568
0.006333
0.006466
0.007709
0.009454
0.011274
0.012821
0.013533
0.013048
0.011884
0.010837
0.009692
0.008906
0.008159
0.007588
0.006302
0.006604
0.007680
0.009477
0.011378
0.012766
0.013534
0.012657
0.015739
0.018692
0.020518
0.020781
0.019323
0.016531
0.011591
0.011526
0.012726
0.013891
0.014327
0.013207
0.011817
0.012577
0.015606
0.018540
0.020389
0.020853
0.019343
0.016505
0.011519
0.011475
0.012604
0.013827
0.014321
0.013266
0.011792
0.007654
0.007772
0.007696
0.007745
0.007744
0.007410
0.007405
0.007227
0.006915
0.005996
0.005577
0.005377
0.005181
0.005406
0.006067
0.006364
0.006762
0.007189
0.007681
0.007718
0.007633
0.007586
0.007538
0.007329
0.007367
0.007200
0.006947
0.006043
0.005757
0.005494
0.005297
0.005433
0.006155
0.006390
0.006762
0.007220
0.005790
0.005013
0.004763
0.005332
0.006688
0.008372
0.009576
0.010442
0.010740
0.009951
0.008947
0.007984
0.007148
0.006700
0.006437
0.006877
0.007268
0.006956
0.005720
0.005105
0.004394
0.005308
0.006703
0.008351
0.009582
0.010404
0.010744
0.009990
0.009034
0.007972
0.007116
0.006649
0.006449
0.006914
0.007280
0.006998
0.008677
0.011040
0.013019
0.013730
0.012929
0.011634
0.009599
0.007728
0.007974
0.013814
0.016814
0.019224
0.020122
0.019251
0.017758
0.015266
0.011806
0.008571
0.008757
0.011068
0.013066
0.013652
0.012913
0.011627
0.009547
0.007634
0.007998
0.013718
0.016751
0.019311
0.019939
0.019143
0.017596
0.015081
0.011732
0.008549
0.011565
0.007316
0.010124
0.011599
0.006416
0.012082
0.009299
0.009326
0.008960
0.012452
0.013144
0.006821
0.011908
0.012627
0.009390
0.006854
0.007855
0.010149
0.013702
0.008104
0.011023
0.008747
0.006200
0.010504
0.011319
0.006080
0.011427
0.007897
0.010419
0.011456
0.007876
0.009965
0.010930
0.008901
0.010931
0.006231
0.008901
0.010692
0.011268
0.013202
0.011937
0.014368
0.012323
0.010522
0.011525
0.011643
0.014668
0.013944
0.010569
0.013629
0.009870
0.010926
0.013173
0.008898
0.011893
0.011491
0.012566
0.010372
0.010250
0.011528
0.012144
0.014172
0.011820
0.013403
0.007971
0.009047
0.011456
0.012841
0.012916
0.013344
0.014296
0.012154
0.013543
0.011705
0.014541
0.017770
0.010007
0.014641
0.018056
0.007765
0.013281
0.013136
0.014057
0.013492
0.019599
0.019940
0.008375
0.011816
0.017773
0.007430
0.011961
0.020916
0.019816
0.013922
0.010720
0.010234
0.016937
0.010718
0.012278
0.011908
0.012264
0.009362
0.006658
0.015386
0.015265
0.012434
0.015476
0.019030
0.015580
0.006838
0.017633
0.018230
0.008346
0.015838
0.015616
0.008243
0.015849
0.007239
0.012753
0.019644
0.006538
0.014058
0.016872
0.006484
0.010847
0.015363
0.008517
0.016417
0.012849
0.017907
0.010754
0.007552
0.010220
0.014924
0.014294
0.008918
0.007563
0.009242
0.009683
0.012040
0.018989
0.007921
0.014714
0.012835
0.011850
0.017312
0.010992
0.010783
0.013133
0.019866
0.018300
0.013512
0.006669
0.013293
0.012016
0.014201
0.012486
0.010647
0.011509
0.011588
0.014590
0.014024
0.010683
0.013807
0.009875
0.010995
0.012972
0.008813
0.011942
0.011487
0.012556
0.010316
0.010239
0.011544
0.011914
0.014240
0.011846
0.013318
0.007967
0.009102
0.011358
0.012734
0.012914
0.013369
0.014233
0.011992
0.013451
0.011666
0.014633
0.017442
0.009895
0.014380
0.018076
0.007836
0.013183
0.013066
0.014096
0.013435
0.019580
0.019917
0.008419
0.011708
0.017703
0.007391
0.011857
0.020695
0.019773
0.013725
0.010556
0.010272
0.016861
0.010444
0.012217
0.011889
0.012216
0.009406
0.006730
0.015397
0.014930
0.012410
0.015379
0.018860
0.015630
0.006960
0.017470
0.018040
0.008399
0.015816
0.015609
0.008178
0.015812
0.007215
0.012773
0.019758
0.006457
0.014012
0.016869
0.006396
0.010829
0.015264
0.008497
0.016331
0.012771
0.017825
0.010785
0.007422
0.010158
0.014830
0.014208
0.008865
0.007581
0.009256
0.009694
0.012014
0.018930
0.007933
0.014679
0.012736
0.011704
0.017231
0.010887
0.010760
0.013055
0.019824
0.018340
0.013388
0.006584
0.011570
0.007314
0.010198
0.011652
0.006448
0.012086
0.009289
0.009342
0.008975
0.012512
0.013168
0.006610
0.011834
0.012622
0.009359
0.006754
0.007643
0.010168
0.013718
0.008047
0.010976
0.008711
0.006202
0.010525
0.011314
0.005987
0.011488
0.008001
0.010401
0.011537
0.007924
0.010022
0.010974
0.008985
0.010921
0.006154
0.008985
0.010736
0.011297
0.008412
0.012798
0.013498
0.009604
0.004976
0.009488
0.005309
0.014325
0.007633
0.005954
0.012931
0.017433
0.007055
0.009419
0.016038
0.005717
0.019080
0.008930
0.005724
0.008619
0.006610
0.004761
0.012460
0.006182
0.011256
0.010889
0.007507
0.005282
0.009385
0.006328
0.014260
0.015387
0.010379
0.010092
0.013230
0.005638
0.011870
0.018423
0.006130
0.017535
0.011433
0.019424
0.007108
0.015071
0.005808
0.012514
0.005168
0.006361
0.004913
0.008314
0.004817
0.011635
0.008063
0.006408
0.007734
0.007609
0.014734
0.016608
0.005412
0.017535
0.010769
0.015712
0.012436
0.012568
0.009239
0.009588
0.011499
0.008867
0.010629
0.007905
0.007837
0.008575
0.007907
0.013974
0.009324
0.008600
0.008424
0.013985
0.011257
0.007429
0.011958
0.011190
0.009212
0.009522
0.008381
0.012225
0.007664
0.013026
0.008704
0.009286
0.007842
0.009782
0.011168
0.010648
0.013022
0.013673
0.012154
0.013162
0.011025
0.007558
0.013759
0.009023
0.012492
0.007539
0.013071
0.010110
0.014116
0.009920
0.013035
0.010673
0.009298
0.010173
0.011202
0.012166
0.013578
0.008148
0.007045
0.011300
0.014185
0.010222
0.008979
0.008895
0.007919
0.007556
0.016906
0.010919
0.005792
0.016887
0.011966
0.015507
0.010169
0.005361
0.015101
0.009694
0.005874
0.007767
0.010633
0.007865
0.007719
0.011657
0.006376
0.005816
0.016121
0.018932
0.019874
0.016744
0.008132
0.012859
0.005197
0.014130
0.017866
0.012993
0.008131
0.013078
0.007759
0.010321
0.009161
0.011779
0.012961
0.012767
0.016835
0.007016
0.009114
0.006798
0.006902
0.007381
0.006717
0.013745
0.009495
0.015059
0.010048
0.018528
0.019837
0.018570
0.014646
0.013824
0.015996
0.007966
0.012648
0.013771
0.010913
0.005903
0.018886
0.006223
0.004875
0.006276
0.010654
0.008052
0.006044
0.007305
0.010460
0.007176
0.009378
0.007647
0.009221
0.005904
0.007935
0.005700
0.007156
0.006808
0.007567
0.004777
0.006248
0.011996
0.009672
0.010182
0.012860
0.007859
0.007627
0.006013
0.009306
0.007809
0.011389
0.008637
0.007795
0.006812
0.005200
0.005729
0.006843
0.008053
0.009338
0.007933
0.010705
0.007686
0.006319
0.006415
0.005661
0.006724
0.005237
0.006350
0.006396
0.009020
0.006695
0.009406
0.011690
0.012902
0.008600
0.011772
0.008704
0.010571
0.007776
0.008939
0.009356
0.007138
0.005730
0.011973
0.005654
0.005813
0.009594
0.014998
0.016542
0.010491
0.005336
0.010135
0.005491
0.008059
0.006332
0.009346
0.018480
0.019341
0.011932
0.006223
0.016399
0.011383
0.019821
0.007064
0.009297
0.007716
0.006327
0.005028
0.012820
0.018400
0.012636
0.008226
0.006002
0.005598
0.009651
0.016340
0.013777
0.015955
0.017660
0.013077
0.012378
0.015183
0.007180
0.012791
0.007090
0.018743
0.018507
0.014035
0.019878
0.009068
0.015941
0.007662
0.013287
0.005475
0.007033
0.006961
0.009393
0.005901
0.010051
0.012819
0.006271
0.007945
0.015977
0.009950
0.016126
0.006673
0.013969
0.012503
0.010632
0.008010
0.006007
0.007237
0.010443
0.007147
0.009382
0.005875
0.007627
0.009264
0.005937
0.005815
0.007944
0.005508
0.006809
0.007622
0.004740
0.006297
0.011991
0.009603
0.010101
0.012844
0.007846
0.007626
0.005226
0.009297
0.007739
0.011422
0.008633
0.007802
0.007030
0.006646
0.008216
0.009375
0.007831
0.010702
0.007592
0.006343
0.006566
0.005547
0.007482
0.005185
0.006453
0.006312
0.009026
0.006635
0.009440
0.011644
0.012857
0.008506
0.011759
0.008646
0.010577
0.007806
0.008935
0.007006
0.009405
0.006581
0.011927
0.005224
0.005930
0.005842
0.008395
0.012797
0.014584
0.009663
0.005005
0.009537
0.005373
0.007662
0.006041
0.017531
0.007061
0.018149
0.009397
0.016133
0.005713
0.018919
0.008919
0.005774
0.008682
0.006637
0.004820
0.012570
0.006192
0.017304
0.010875
0.007520
0.005350
0.009429
0.006383
0.014078
0.011485
0.015491
0.015898
0.010484
0.010093
0.013362
0.005623
0.011980
0.018511
0.006110
0.016820
0.011440
0.019447
0.007067
0.015176
0.005795
0.012633
0.005152
0.006427
0.004988
0.008343
0.004856
0.011720
0.008026
0.006467
0.007775
0.014937
0.007629
0.014768
0.005454
0.012834
0.011981
0.011235
0.013252
0.012732
0.009617
0.008258
0.008861
0.007719
0.010997
0.007801
0.008175
0.009057
0.011067
0.013726
0.014025
0.009361
0.011471
0.008956
0.013838
0.009518
0.010308
0.008305
0.007536
0.008707
0.008512
0.012687
0.012962
0.008417
0.007567
0.007882
0.007637
0.013367
0.012804
0.014149
0.013574
0.012701
0.010584
0.011082
0.008893
0.012865
0.011300
0.013835
0.008984
0.014014
0.010944
0.012068
0.010228
0.009667
0.009153
0.007643
0.009586
0.008172
0.012152
0.012350
0.008651
0.007080
0.013005
0.011903
0.011244
0.007518
0.009161
0.011227
0.008510
0.009901
0.010147
0.015816
0.011153
0.012179
0.013926
0.013622
0.005050
0.002621
0.010108
0.009445
0.011465
0.010159
0.016677
0.009679
0.010422
0.011198
0.016967
0.012914
0.002339
0.006540
0.008101
0.007787
0.009801
0.015738
0.013374
0.014982
0.013014
0.013931
0.011372
0.016866
0.016241
0.014657
0.013988
0.009084
0.017208
0.016885
0.006541
0.013342
0.005943
0.012924
0.019373
0.010696
0.013750
0.011285
0.018511
0.007837
0.007910
0.016720
0.008521
0.010007
0.015481
0.018650
0.012921
0.012554
0.011438
0.012408
0.009062
0.012641
0.014807
0.012649
0.012763
0.011030
0.011878
0.012208
0.012764
0.016094
0.019058
0.009833
0.013397
0.015850
0.016126
0.016157
0.017998
0.010914
0.013111
0.014839
0.017883
0.016050
0.015306
0.014078
0.016347
0.015431
0.018954
0.016916
0.013683
0.007153
0.007874
0.006210
0.010175
0.007286
0.007082
0.012332
0.013904
0.011750
0.012132
0.012971
0.013342
0.006379
0.004890
0.012655
0.003812
