# vtk DataFile Version 2.0
Unstructured Grid Example
ASCII
DATASET UNSTRUCTURED_GRID
POINTS 1108 float
0.998656 -0.000514 0.012684 
-0.998656 0.000499 -0.012565 
-0.000659 0.992641 0.001937 
0.000569 -0.992475 -0.002013 
0.012482 0.001951 1.008791 
-0.012429 -0.002022 -1.008720 
1.198717 -0.000358 0.008406 
-1.198738 0.000228 -0.008412 
-0.000467 1.192872 0.001314 
0.000429 -1.192976 -0.001426 
0.008337 0.001316 1.208274 
-0.008381 -0.001366 -1.208319 
0.979270 0.193574 0.012757 
0.922084 0.379948 0.012420 
0.829309 0.551540 0.011510 
0.704729 0.701927 0.010345 
0.553278 0.825196 0.008401 
0.380849 0.916795 0.006496 
0.193848 0.973309 0.004339 
-0.195132 0.973986 -0.000329 
-0.382048 0.917782 -0.002825 
-0.554665 0.826331 -0.005376 
-0.705919 0.703162 -0.007594 
-0.830012 0.552807 -0.009252 
-0.922711 0.381139 -0.010938 
-0.979541 0.194556 -0.011934 
-0.979263 -0.193677 -0.012651 
-0.922249 -0.380047 -0.012316 
-0.829630 -0.551685 -0.011426 
-0.705032 -0.702013 -0.010254 
-0.553436 -0.825190 -0.008511 
-0.380926 -0.916782 -0.006670 
-0.193857 -0.973356 -0.004310 
0.194953 -0.973781 0.000336 
0.382016 -0.917526 0.002792 
0.554609 -0.826237 0.005510 
0.705942 -0.703143 0.007562 
0.830031 -0.552775 0.009264 
0.922759 -0.381164 0.010965 
0.979534 -0.194596 0.011966 
0.012306 -0.192662 0.988480 
0.011755 -0.379563 0.929946 
0.010609 -0.551361 0.835527 
0.009182 -0.701707 0.709176 
0.007467 -0.824744 0.556262 
0.005205 -0.916379 0.382095 
0.002899 -0.972907 0.193666 
-0.001880 -0.974378 -0.197578 
-0.004243 -0.919122 -0.386191 
-0.006515 -0.828536 -0.560488 
-0.008403 -0.705909 -0.713519 
-0.009961 -0.555719 -0.839324 
-0.011288 -0.383705 -0.932805 
-0.012031 -0.196692 -0.989980 
-0.012290 0.192694 -0.988452 
-0.011623 0.379577 -0.929717 
-0.010701 0.551332 -0.835497 
-0.009237 0.701732 -0.709281 
-0.007445 0.824805 -0.556329 
-0.005291 0.916394 -0.382172 
-0.003009 0.972916 -0.193707 
0.001776 0.974372 0.197541 
0.004291 0.919053 0.386359 
0.006519 0.828571 0.560447 
0.008472 0.705856 0.713460 
0.010051 0.555684 0.839397 
0.011327 0.383636 0.932662 
0.012113 0.196620 0.989887 
0.984393 -0.000123 0.208867 
0.932098 0.000309 0.398367 
0.843382 0.000600 0.572893 
0.720878 0.000912 0.725615 
0.569923 0.001376 0.849878 
0.396691 0.001603 0.940432 
0.208212 0.001768 0.993851 
-0.182766 0.001944 0.984586 
-0.369951 0.002130 0.922631 
-0.542502 0.001863 0.825919 
-0.693896 0.001739 0.698936 
-0.819059 0.001631 0.545412 
-0.914096 0.001137 0.371556 
-0.974697 0.000851 0.183300 
-0.984409 0.000097 -0.208770 
-0.931995 -0.000300 -0.398253 
-0.843156 -0.000563 -0.572841 
-0.720724 -0.000907 -0.725549 
-0.569816 -0.001271 -0.850070 
-0.396698 -0.001567 -0.940458 
-0.208181 -0.001803 -0.993835 
0.182872 -0.002059 -0.984587 
0.370005 -0.002129 -0.922674 
0.542634 -0.001937 -0.825988 
0.693992 -0.001776 -0.698927 
0.819047 -0.001612 -0.545435 
0.914084 -0.001224 -0.371486 
0.974818 -0.000910 -0.183274 
1.183784 0.186734 0.008433 
1.139501 0.369117 0.008394 
1.066952 0.542326 0.007990 
0.968375 0.701917 0.007632 
0.845984 0.843949 0.006963 
0.702773 0.965387 0.005779 
0.542531 1.062865 0.004909 
0.369085 1.134261 0.003745 
0.186659 1.178025 0.002748 
-0.187559 1.178482 -0.000114 
-0.369966 1.135265 -0.001616 
-0.543541 1.063868 -0.002557 
-0.703697 0.966574 -0.003640 
-0.847052 0.845094 -0.004799 
-0.969515 0.702699 -0.006157 
-1.067732 0.543165 -0.006817 
-1.140146 0.369775 -0.007453 
-1.184111 0.187312 -0.008001 
-1.183835 -0.186728 -0.008472 
-1.139662 -0.369179 -0.008375 
-1.067208 -0.542410 -0.008007 
-0.968627 -0.702072 -0.007573 
-0.845994 -0.844061 -0.006751 
-0.702783 -0.965493 -0.005751 
-0.542598 -1.062854 -0.004852 
-0.369125 -1.134298 -0.003765 
-0.186668 -1.177989 -0.002759 
0.187455 -1.178432 0.000087 
0.369876 -1.135055 0.001572 
0.543402 -1.063771 0.002596 
0.703613 -0.966496 0.003719 
0.846992 -0.845146 0.004855 
0.969495 -0.702733 0.006277 
1.067734 -0.543196 0.006855 
1.140159 -0.369811 0.007460 
1.184101 -0.187381 0.008038 
-0.001090 -1.178990 -0.189262 
-0.002217 -1.136386 -0.372571 
-0.003497 -1.066026 -0.547312 
-0.004428 -0.969334 -0.709108 
-0.005654 -0.848493 -0.853495 
-0.006751 -0.706497 -0.977288 
-0.007229 -0.546372 -1.077040 
-0.007733 -0.372502 -1.149952 
-0.008166 -0.189215 -1.194008 
-0.008247 0.186442 -1.192691 
-0.008027 0.369501 -1.147198 
-0.007622 0.542793 -1.073524 
-0.007030 0.702360 -0.973346 
-0.006188 0.844401 -0.849752 
-0.004998 0.965585 -0.705054 
-0.004080 1.062698 -0.543866 
-0.003164 1.133806 -0.369732 
-0.001685 1.177703 -0.186372 
0.001149 1.179099 0.189324 
0.002197 1.136293 0.372667 
0.003238 1.066207 0.547014 
0.004406 0.969380 0.709109 
0.005654 0.848441 0.853519 
0.006871 0.706486 0.977127 
0.007289 0.546345 1.076999 
0.007796 0.372490 1.149839 
0.008201 0.189257 1.193973 
0.008332 -0.186514 1.192674 
0.008029 -0.369431 1.147345 
0.007613 -0.542877 1.073549 
0.007057 -0.702413 0.973213 
0.006151 -0.844421 0.849653 
0.004968 -0.965544 0.704974 
0.004062 -1.062644 0.543815 
0.003140 -1.133792 0.369661 
0.001651 -1.177671 0.186235 
-1.179690 0.000549 0.179697 
-1.132334 0.000605 0.362210 
-1.057894 0.000921 0.535528 
-0.958717 0.000911 0.695784 
-0.836854 0.001295 0.839945 
-0.694247 0.001298 0.963997 
-0.535038 0.001323 1.064756 
-0.362234 0.001282 1.140782 
-0.179736 0.001369 1.189082 
0.197014 0.001181 1.197629 
0.381518 0.001168 1.156828 
0.557273 0.001023 1.086843 
0.719116 0.000820 0.988772 
0.862239 0.000681 0.865284 
0.983768 0.000562 0.720550 
1.080235 0.000239 0.557956 
1.148738 0.000010 0.381805 
1.188325 -0.000152 0.196853 
1.179727 -0.000591 -0.179566 
1.132263 -0.000774 -0.362252 
1.057828 -0.000936 -0.535527 
0.958802 -0.000984 -0.695827 
0.836829 -0.001263 -0.840004 
0.694222 -0.001219 -0.964036 
0.535068 -0.001304 -1.064827 
0.362350 -0.001330 -1.140756 
0.179734 -0.001336 -1.189152 
-0.196939 -0.001158 -1.197552 
-0.381394 -0.001142 -1.156830 
-0.557279 -0.001074 -1.086955 
-0.719062 -0.001019 -0.988543 
-0.862166 -0.000674 -0.865187 
-0.983623 -0.000535 -0.720436 
-1.080042 -0.000204 -0.557847 
-1.148653 0.000008 -0.381762 
-1.188327 0.000133 -0.196826 
0.809597 -0.394261 -0.406029 
0.410752 -0.788877 -0.441104 
0.382843 -0.376884 -0.837014 
0.884729 -0.296967 -0.326863 
0.292055 -0.888811 -0.334120 
0.670550 -0.334447 -0.642551 
0.548970 -0.626665 -0.535775 
0.866578 -0.478102 -0.099036 
0.171532 -0.618155 -0.767482 
0.600272 -0.171746 -0.765394 
0.863026 -0.156168 -0.450374 
0.200724 -0.847841 -0.481968 
0.946572 -0.138250 -0.254870 
0.793029 -0.291284 -0.508654 
0.676558 -0.639581 -0.337088 
0.460758 -0.856428 -0.198404 
0.625099 -0.752307 -0.168905 
0.516285 -0.475197 -0.699690 
0.784988 -0.142368 -0.577281 
0.551289 -0.748396 -0.344321 
0.981957 -0.122755 -0.101787 
0.767911 -0.613138 -0.144048 
0.149587 -0.942402 -0.278810 
0.933605 -0.305212 -0.148422 
0.726491 -0.466755 -0.479408 
0.266810 -0.944576 -0.151577 
0.537913 -0.300031 -0.774746 
0.325801 -0.701881 -0.625518 
0.827126 -0.465825 -0.281253 
0.486052 -0.181913 -0.844213 
0.139998 -0.755230 -0.638613 
0.184747 -0.480202 -0.858834 
0.165749 -0.318667 -0.936077 
0.341687 -0.554550 -0.752780 
0.628010 -0.478560 -0.594783 
0.123425 -0.977415 -0.126253 
0.439011 -0.598889 -0.658834 
0.317460 -0.216560 -0.919915 
0.193068 -0.134232 -0.973501 
0.490854 0.576074 -0.631906 
0.497135 0.776421 -0.352411 
0.797453 0.367638 -0.444717 
0.388852 0.463031 -0.782834 
0.344996 0.877585 -0.296939 
0.278825 0.309145 -0.903366 
0.158004 0.160911 -0.975423 
0.748893 0.212578 -0.601040 
0.661964 0.531148 -0.498815 
0.498246 0.839375 -0.163317 
0.588805 0.172784 -0.771813 
0.176966 0.869807 -0.439139 
0.157791 0.470280 -0.864598 
0.546830 0.676070 -0.463608 
0.147647 0.946025 -0.253503 
0.377307 0.136375 -0.908065 
0.111866 0.319292 -0.942034 
0.618236 0.695847 -0.327380 
0.105278 0.619820 -0.772427 
0.159272 0.748321 -0.631848 
0.291112 0.618281 -0.716892 
0.850983 0.481399 -0.159942 
0.596765 0.388131 -0.680228 
0.367844 0.758545 -0.514226 
0.752127 0.547861 -0.326592 
0.123364 0.977725 -0.108142 
0.285980 0.938735 -0.135180 
0.702789 0.684172 -0.138606 
0.938879 0.144683 -0.274007 
0.460775 0.300919 -0.820915 
0.846212 0.405420 -0.305703 
0.865427 0.167571 -0.438688 
0.933618 0.289649 -0.165344 
0.886743 0.280111 -0.329754 
0.978161 0.126835 -0.119732 
0.713428 0.379154 -0.561114 
0.472999 0.461894 0.774799 
0.457415 0.802670 0.392917 
0.838789 0.411860 0.387032 
0.345745 0.316122 0.904720 
0.306577 0.901065 0.303218 
0.910436 0.337059 0.269621 
0.966951 0.168115 0.224370 
0.559844 0.632700 0.557210 
0.119472 0.482021 0.880593 
0.765422 0.167870 0.654841 
0.456671 0.162260 0.899663 
0.430103 0.879440 0.190702 
0.867020 0.470812 0.180857 
0.275091 0.143632 0.969494 
0.254460 0.950368 0.147672 
0.939935 0.320774 0.136767 
0.627398 0.161487 0.792285 
0.529246 0.293977 0.823122 
0.327922 0.629766 0.721595 
0.775629 0.617649 0.125708 
0.670053 0.720018 0.180639 
0.599388 0.496195 0.654869 
0.201148 0.752623 0.637636 
0.764099 0.576530 0.310958 
0.634494 0.683812 0.378732 
0.397561 0.719350 0.585892 
0.553934 0.799730 0.231892 
0.110796 0.979477 0.126977 
0.125061 0.125417 0.997610 
0.475588 0.595933 0.669116 
0.160634 0.613516 0.785602 
0.712006 0.507537 0.513405 
0.654914 0.352009 0.698822 
0.170046 0.311258 0.950167 
0.167910 0.943562 0.273505 
0.794931 0.320965 0.548270 
0.851430 0.141540 0.540904 
0.221530 0.861886 0.460260 
0.894891 0.233740 0.414970 
0.268114 0.478602 0.853871 
0.516287 -0.784262 0.348973 
0.341988 -0.371204 0.880129 
0.331717 -0.868524 0.363498 
0.160935 -0.462865 0.880567 
0.527356 -0.157533 0.860477 
0.428461 -0.879269 0.192279 
0.616468 -0.545758 0.589200 
0.279847 -0.173098 0.961411 
0.229752 -0.950258 0.180731 
0.915502 -0.372911 0.174628 
0.778790 -0.400448 0.511779 
0.739412 -0.657046 0.150096 
0.878304 -0.188488 0.473904 
0.959541 -0.181305 0.248153 
0.519857 -0.321577 0.814824 
0.573418 -0.674418 0.479831 
0.612578 -0.770742 0.169966 
0.712602 -0.635230 0.314101 
[...]
POINT_DATA 1108
SCALARS u float 1
LOOKUP_TABLE default
0.012766
0.012646
0.007638
0.007811
0.015391
0.015317
0.008511
0.008510
0.007263
0.007180
0.011819
0.011887
0.012936
0.012843
0.012385
0.011811
0.010733
0.009785
0.008733
0.006808
0.006750
0.007491
0.008639
0.009766
0.011109
0.012010
0.012820
0.012700
0.012208
0.011636
0.010790
0.009897
0.008677
0.007014
0.006971
0.007659
0.008617
0.009783
0.011126
0.012041
0.014715
0.013591
0.012113
0.010851
0.010073
0.009148
0.008515
0.007125
0.007276
0.008674
0.010638
0.012686
0.014427
0.015227
0.014682
0.013372
0.012194
0.010905
0.010021
0.009181
0.008538
0.007091
0.007431
0.008642
0.010663
0.012802
0.014364
0.015229
0.014242
0.017709
0.021032
0.023087
0.023383
0.021743
0.018601
0.013043
0.012969
0.014320
0.015630
0.016121
0.014861
0.013296
0.014152
0.017560
0.020861
0.022942
0.023464
0.021764
0.018572
0.012961
0.012912
0.014182
0.015558
0.016114
0.014927
0.013269
0.008613
0.008745
0.008659
0.008715
0.008713
0.008338
0.008332
0.008132
0.007781
0.006747
0.006275
0.006050
0.005830
0.006083
0.006827
0.007161
0.007609
0.008089
0.008643
0.008684
0.008589
0.008535
0.008482
0.008247
0.008289
0.008101
0.007816
0.006799
0.006477
0.006182
0.005960
0.006113
0.006926
0.007190
0.007609
0.008124
0.006515
0.005640
0.005359
0.006000
0.007525
0.009420
0.010775
0.011749
0.012085
0.011197
0.010067
0.008984
0.008043
0.007539
0.007243
0.007738
0.008178
0.007827
0.006436
0.005744
0.004944
0.005973
0.007542
0.009396
0.010782
0.011706
0.012089
0.011241
0.010165
0.008970
0.008006
0.007482
0.007257
0.007780
0.008191
0.007875
0.009764
0.012423
0.014649
0.015449
0.014548
0.013090
0.010801
0.008696
0.008972
0.015543
0.018919
0.021631
0.022641
0.021662
0.019981
0.017177
0.013284
0.009644
0.009854
0.012454
0.014702
0.015361
0.014530
0.013083
0.010742
0.008589
0.009000
0.015435
0.018849
0.021729
0.022436
0.021540
0.019799
0.016969
0.013201
0.009620
0.013013
0.008233
0.011391
0.013051
0.007220
0.013595
0.010463
0.010493
0.010082
0.014011
0.014789
0.007675
0.013398
0.014208
0.010566
0.007712
0.008839
0.011420
0.015418
0.009118
0.012403
0.009843
0.006976
0.011819
0.012737
0.006842
0.012858
0.008885
0.011724
0.012890
0.008862
0.011212
0.012299
0.010016
0.012299
0.007011
0.010016
0.012030
0.012679
0.014855
0.013431
0.016167
0.013866
0.011840
0.012968
0.013100
0.016504
0.015689
0.011893
0.015335
0.011106
0.012294
0.014822
0.010012
0.013382
0.012930
0.014139
0.011671
0.011533
0.012972
0.013664
0.015946
0.013300
0.015082
0.008969
0.010180
0.012890
0.014449
0.014533
0.015015
0.016085
0.013675
0.015239
0.013170
0.016361
0.019995
0.011260
0.016474
0.020317
0.008738
0.014944
0.014781
0.015817
0.015181
0.022053
0.022437
0.009424
0.013295
0.019998
0.008361
0.013459
0.023535
0.022297
0.015666
0.012063
0.011516
0.019058
0.012060
0.013816
0.013399
0.013800
0.010534
0.007492
0.017312
0.017176
0.013990
0.017414
0.021413
0.017530
0.007694
0.019840
0.020513
0.009391
0.017821
0.017571
0.009275
0.017833
0.008146
0.014350
0.022104
0.007357
0.015818
0.018985
0.007296
0.012205
0.017287
0.009583
0.018472
0.014458
0.020148
0.012100
0.008498
0.011500
0.016793
0.016084
0.010034
0.008510
0.010399
0.010895
0.013548
0.021366
0.008913
0.016556
0.014442
0.013334
0.019479
0.012368
0.012133
0.014778
0.022353
0.020592
0.015204
0.007504
0.014957
0.013520
0.015979
0.014049
0.011980
0.012951
0.013039
0.016417
0.015780
0.012020
0.015536
0.011111
0.012372
0.014596
0.009916
0.013438
0.012926
0.014128
0.011607
0.011521
0.012989
0.013405
0.016023
0.013329
0.014985
0.008964
0.010241
0.012780
0.014328
0.014531
0.015043
0.016015
0.013493
0.015135
0.013127
0.016465
0.019626
0.011134
0.016180
0.020340
0.008817
0.014834
0.014702
0.015860
0.015117
0.022032
0.022411
0.009473
0.013174
0.019920
0.008317
0.013342
0.023286
0.022248
0.015443
0.011878
0.011558
0.018972
0.011752
0.013747
0.013378
0.013746
0.010584
0.007573
0.017325
0.016799
0.013963
0.017305
0.021222
0.017587
0.007831
0.019657
0.020299
0.009450
0.017797
0.017563
0.009202
0.017791
0.008118
0.014372
0.022232
0.007266
0.015767
0.018981
0.007197
0.012185
0.017175
0.009560
0.018376
0.014370
0.020056
0.012135
0.008351
0.011429
0.016686
0.015987
0.009975
0.008530
0.010415
0.010908
0.013518
0.021301
0.008926
0.016517
0.014331
0.013170
0.019389
0.012250
0.012107
0.014689
0.022306
0.020636
0.015064
0.007409
0.013018
0.008230
0.011475
0.013110
0.007255
0.013599
0.010452
0.010512
0.010099
0.014079
0.014817
0.007438
0.013315
0.014202
0.010530
0.007600
0.008600
0.011441
0.015435
0.009054
0.012351
0.009802
0.006979
0.011843
0.012730
0.006736
0.012926
0.009002
0.011704
0.012982
0.008916
0.011277
0.012348
0.010110
0.012288
0.006925
0.010110
0.012080
0.012711
0.009465
0.014400
0.015188
0.010806
0.005599
0.010676
0.005973
0.016119
0.008589
0.006699
0.014550
0.019616
0.007939
0.010598
0.018046
0.006433
0.021469
0.010048
0.006441
0.009698
0.007438
0.005357
0.014020
0.006956
0.012665
0.012252
0.008447
0.005944
0.010560
0.007120
0.016045
0.017313
0.011678
0.011355
0.014887
0.006344
0.013356
0.020729
0.006897
0.019731
0.012865
0.021856
0.007998
0.016958
0.006535
0.014080
0.005815
0.007157
0.005528
0.009355
0.005420
0.013092
0.009073
0.007210
0.008702
0.008562
0.016579
0.018688
0.006090
0.019730
0.012117
0.017679
0.013994
0.014142
0.010396
0.010789
0.012939
0.009977
0.011960
0.008895
0.008819
0.009649
0.008897
0.015724
0.010492
0.009677
0.009479
0.015736
0.012666
0.008359
0.013455
0.012591
0.010365
0.010714
0.009430
0.013756
0.008623
0.014657
0.009794
0.010449
0.008824
0.011007
0.012567
0.011981
0.014653
0.015384
0.013676
0.014810
0.012406
0.008504
0.015482
0.010153
0.014056
0.008482
0.014707
0.011375
0.015883
0.011162
0.014668
0.012010
0.010462
0.011446
0.012605
0.013689
0.015278
0.009168
0.007927
0.012714
0.015961
0.011501
0.010103
0.010008
0.008911
0.008502
0.019023
0.012287
0.006517
0.019001
0.013464
0.017448
0.011443
0.006032
0.016992
0.010908
0.006610
0.008740
0.011964
0.008850
0.008685
0.013117
0.007174
0.006544
0.018139
0.021303
0.022362
0.018840
0.009150
0.014469
0.005848
0.015899
0.020103
0.014620
0.009149
0.014715
0.008731
0.011613
0.010307
0.013254
0.014584
0.014365
0.018943
0.007894
0.010255
0.007649
0.007766
0.008305
0.007558
0.015466
0.010683
0.016945
0.011307
0.020848
0.022320
0.020895
0.016480
0.015555
0.017999
0.008963
0.014232
0.015496
0.012279
0.006642
0.021251
0.007003
0.005485
0.007061
0.011988
0.009060
0.006801
0.008220
0.011769
0.008075
0.010552
0.008605
0.010376
0.006644
0.008928
0.006414
0.008052
0.007660
0.008515
0.005375
0.007030
0.013498
0.010883
0.011457
0.014470
0.008843
0.008582
0.006766
0.010471
0.008786
0.012815
0.009718
0.008771
0.007665
0.005851
0.006446
0.007700
0.009061
0.010507
0.008926
0.012046
0.008648
0.007110
0.007219
0.006369
0.007566
0.005892
0.007145
0.007196
0.010150
0.007533
0.010584
0.013153
0.014517
0.009677
0.013246
0.009794
0.011895
0.008749
0.010059
0.010528
0.008031
0.006447
0.013472
0.006361
0.006541
0.010795
0.016875
0.018614
0.011804
0.006004
0.011403
0.006179
0.009068
0.007124
0.010516
0.020794
0.021762
0.013426
0.007002
0.018452
0.012809
0.022303
0.007948
0.010461
0.008682
0.007119
0.005657
0.014425
0.020703
0.014218
0.009256
0.006753
0.006299
0.010859
0.018385
0.015502
0.017952
0.019872
0.014715
0.013928
0.017084
0.008079
0.014392
0.007978
0.021090
0.020825
0.015792
0.022367
0.010204
0.017937
0.008622
0.014950
0.006161
0.007913
0.007832
0.010569
0.006640
0.011309
0.014424
0.007056
0.008940
0.017977
0.011196
0.018145
0.007509
0.015718
0.014068
0.011963
0.009013
0.006759
0.008143
0.011750
0.008041
0.010556
0.006611
0.008582
0.010423
0.006680
0.006543
0.008939
0.006198
0.007662
0.008576
0.005334
0.007086
0.013492
0.010806
0.011366
0.014452
0.008828
0.008581
0.005881
0.010461
0.008708
0.012852
0.009714
0.008778
0.007910
0.007479
0.009244
0.010549
0.008812
0.012041
0.008542
0.007137
0.007388
0.006241
0.008419
0.005834
0.007261
0.007102
0.010156
0.007465
0.010622
0.013102
0.014467
0.009571
0.013231
0.009729
0.011902
0.008783
0.010054
0.007883
0.010582
0.007405
0.013420
0.005879
0.006673
0.006573
0.009447
0.014399
0.016410
0.010873
0.005632
0.010731
0.006046
0.008621
0.006798
0.019726
0.007945
0.020421
0.010573
0.018153
0.006429
0.021287
0.010035
0.006497
0.009769
0.007468
0.005423
0.014144
0.006967
0.019470
0.012237
0.008462
0.006020
0.010610
0.007183
0.015841
0.012922
0.017430
0.017888
0.011797
0.011357
0.015035
0.006328
0.013480
0.020828
0.006875
0.018926
0.012873
0.021882
0.007952
0.017076
0.006521
0.014215
0.005797
0.007232
0.005613
0.009388
0.005464
0.013187
0.009031
0.007276
0.008749
0.016807
0.008585
0.016617
0.006136
0.014441
0.013481
0.012641
0.014912
0.014326
0.010821
0.009292
0.009970
0.008686
0.012374
0.008778
0.009199
0.010192
0.012452
0.015445
0.015781
0.010533
0.012908
0.010077
0.015571
0.010709
0.011599
0.009345
0.008480
0.009798
0.009577
0.014276
0.014585
0.009471
0.008514
0.008869
0.008593
0.015040
0.014407
0.015921
0.015274
0.014292
0.011910
0.012469
0.010007
0.014476
0.012715
0.015567
0.010109
0.015768
0.012314
0.013579
0.011509
0.010877
0.010299
0.008600
0.010787
0.009195
0.013674
0.013897
0.009734
0.007966
0.014633
0.013393
0.012651
0.008459
0.010308
0.012632
0.009576
0.011141
0.011417
0.017796
0.012550
0.013704
0.015670
0.015328
0.005682
0.002949
0.011374
0.010628
0.012900
0.011431
0.018765
0.010891
0.011727
0.012600
0.019092
0.014531
0.002632
0.007358
0.009115
0.008762
0.011028
0.017708
0.015048
0.016858
0.014644
0.015675
0.012796
0.018977
0.018274
0.016492
0.015740
0.010222
0.019363
0.019000
0.007360
0.015012
0.006687
0.014542
0.021799
0.012036
0.015472
0.012698
0.020829
0.008819
0.008901
0.018813
0.009588
0.011260
0.017419
0.020985
0.014539
0.014126
0.012870
0.013962
0.010196
0.014224
0.016661
0.014232
0.014361
0.012411
0.013365
0.013736
0.014362
0.018109
0.021445
0.011064
0.015075
0.017835
0.018145
0.018180
0.020252
0.012280
0.014752
0.016697
0.020122
0.018059
0.017223
0.015841
0.018394
0.017363
0.021327
0.019034
0.015396
0.008048
0.008859
0.006987
0.011449
0.008198
0.007968
0.013876
0.015645
0.013221
0.013651
0.014595
0.015013
0.007177
0.005502
0.014239
0.004289
