# vtk DataFile Version 2.0
Unstructured Grid Example
ASCII
DATASET UNSTRUCTURED_GRID
POINTS 1108 float
1.015554 0.020159 -0.003308 
-1.015311 -0.019875 0.003111 
0.020076 0.979153 0.005493 
-0.020066 -0.979013 -0.005547 
-0.003287 0.005348 1.006128 
0.003357 -0.005560 -1.005390 
1.214601 0.013319 -0.002194 
-1.214588 -0.013455 0.002061 
0.013298 1.180295 0.003427 
-0.013577 -1.180114 -0.003618 
-0.002124 0.003564 1.205748 
0.002092 -0.003452 -1.205361 
1.003070 0.213783 -0.002043 
0.950844 0.400025 -0.000990 
0.860325 0.570480 0.000051 
0.735122 0.718216 0.001457 
0.581217 0.836122 0.002723 
0.405813 0.920301 0.003775 
0.216058 0.968549 0.004651 
-0.175326 0.953485 0.005949 
-0.362967 0.891877 0.006298 
-0.537606 0.797876 0.006280 
-0.692504 0.675293 0.006035 
-0.822106 0.526948 0.005667 
-0.922290 0.357636 0.005027 
-0.987791 0.173116 0.004166 
-1.002737 -0.213618 0.001930 
-0.950627 -0.399916 0.001082 
-0.859766 -0.570296 -0.000172 
-0.734613 -0.718269 -0.001541 
-0.581079 -0.836406 -0.002690 
-0.405900 -0.920686 -0.003722 
-0.216239 -0.968485 -0.004775 
0.175150 -0.953367 -0.006094 
0.362835 -0.891998 -0.006391 
0.537469 -0.797823 -0.006429 
0.692206 -0.675279 -0.006143 
0.822093 -0.526921 -0.005731 
0.922067 -0.357409 -0.005172 
0.987703 -0.172851 -0.004359 
-0.007290 -0.187209 0.984579 
-0.010799 -0.371906 0.924500 
-0.014035 -0.541224 0.828828 
-0.016576 -0.689431 0.701965 
-0.018553 -0.810668 0.549124 
-0.019747 -0.901402 0.375779 
-0.020566 -0.958690 0.188938 
-0.019019 -0.962797 -0.200179 
-0.017277 -0.909857 -0.387838 
-0.014722 -0.821893 -0.561184 
-0.011642 -0.701295 -0.713575 
-0.008363 -0.553204 -0.838867 
-0.004497 -0.383339 -0.931553 
-0.000447 -0.198487 -0.987846 
0.007043 0.187477 -0.984102 
0.010672 0.371996 -0.923866 
0.013943 0.541385 -0.828877 
0.016390 0.689633 -0.702160 
0.018335 0.810843 -0.549235 
0.019566 0.901572 -0.375893 
0.020377 0.958700 -0.189006 
0.018891 0.962768 0.199945 
0.017177 0.909753 0.387485 
0.014847 0.821409 0.561181 
0.011718 0.701064 0.713511 
0.008640 0.553102 0.838790 
0.004711 0.383105 0.931857 
0.000555 0.198149 0.988237 
0.994501 0.020659 0.193217 
0.935214 0.020610 0.382304 
0.840438 0.019450 0.556480 
0.713383 0.017914 0.708882 
0.559344 0.015755 0.834131 
0.384174 0.012468 0.927594 
0.194270 0.008769 0.985654 
-0.200628 0.001093 0.988233 
-0.391228 -0.002501 0.932465 
-0.566326 -0.006902 0.840410 
-0.719793 -0.010149 0.715830 
-0.846007 -0.013500 0.563528 
-0.939693 -0.016199 0.389171 
-0.996879 -0.018327 0.199805 
-0.994449 -0.020467 -0.193426 
-0.935286 -0.020571 -0.382515 
-0.840573 -0.019279 -0.556682 
-0.713530 -0.017822 -0.708976 
-0.559683 -0.015441 -0.833920 
-0.384066 -0.012068 -0.927156 
-0.193975 -0.008778 -0.984921 
0.200922 -0.001560 -0.987925 
0.390915 0.002543 -0.932134 
0.566280 0.006737 -0.840207 
0.720035 0.010226 -0.715887 
0.846353 0.013562 -0.563615 
0.939791 0.016506 -0.389302 
0.996880 0.018719 -0.200120 
1.206334 0.201306 -0.001608 
1.166776 0.385399 -0.000888 
1.096626 0.560366 -0.000189 
0.997320 0.720596 0.000480 
0.872565 0.861577 0.000828 
0.726302 0.979664 0.001687 
0.562434 1.072048 0.002199 
0.385605 1.136649 0.002671 
0.201016 1.172760 0.003223 
-0.173319 1.159144 0.003743 
-0.354835 1.110744 0.004218 
-0.526665 1.036677 0.004194 
-0.686958 0.939911 0.004447 
-0.832156 0.821037 0.003998 
-0.957801 0.681321 0.003717 
-1.061502 0.524829 0.003552 
-1.140795 0.354451 0.003168 
-1.192638 0.173567 0.002771 
-1.205953 -0.201099 0.001561 
-1.166493 -0.384982 0.000677 
-1.096321 -0.560247 0.000099 
-0.996932 -0.720136 -0.000508 
-0.872781 -0.861143 -0.000888 
-0.726514 -0.979601 -0.001811 
-0.562562 -1.072291 -0.002232 
-0.385651 -1.136860 -0.002773 
-0.201026 -1.172671 -0.003109 
0.173283 -1.159177 -0.003814 
0.354641 -1.110778 -0.004202 
0.526594 -1.036649 -0.004301 
0.686864 -0.939865 -0.004485 
0.832000 -0.820867 -0.004078 
0.957590 -0.681159 -0.003776 
1.061351 -0.524636 -0.003617 
1.140588 -0.354332 -0.003227 
1.192554 -0.173585 -0.002835 
-0.012895 -1.167778 -0.190101 
-0.012026 -1.127157 -0.372861 
-0.010904 -1.058764 -0.547168 
-0.009780 -0.963951 -0.708519 
-0.007824 -0.844704 -0.853154 
-0.005738 -0.703907 -0.976663 
-0.003966 -0.545305 -1.076075 
-0.001994 -0.372441 -1.148664 
-0.000203 -0.189882 -1.192230 
0.004484 0.182551 -1.188339 
0.006223 0.364626 -1.141775 
0.007949 0.535860 -1.066872 
0.009486 0.693714 -0.965834 
0.010695 0.833668 -0.842124 
0.012340 0.953002 -0.697697 
0.012749 1.048656 -0.537235 
0.013211 1.119745 -0.364582 
0.013513 1.163821 -0.182710 
0.012908 1.167826 0.190199 
0.012048 1.127062 0.372723 
0.010859 1.058036 0.547450 
0.010005 0.963434 0.708467 
0.007969 0.844459 0.852965 
0.005394 0.703871 0.976755 
0.004011 0.545293 1.076075 
0.002089 0.372488 1.148893 
0.000215 0.190065 1.192594 
-0.004303 -0.183225 1.188956 
-0.006215 -0.364434 1.142156 
-0.008113 -0.536047 1.066904 
-0.009558 -0.693679 0.965851 
-0.010676 -0.833550 0.841956 
-0.012438 -0.952862 0.697597 
-0.012841 -1.048464 0.537140 
-0.013310 -1.119639 0.364572 
-0.013585 -1.163791 0.182659 
-1.200601 -0.012537 0.191721 
-1.156749 -0.011704 0.376377 
-1.083885 -0.010188 0.551776 
-0.984339 -0.008992 0.713102 
-0.860211 -0.006737 0.857084 
-0.714864 -0.004772 0.980256 
-0.553062 -0.002926 1.078480 
-0.376388 -0.000781 1.149226 
-0.191473 0.001264 1.192083 
0.187104 0.005647 1.189916 
0.371456 0.007740 1.145268 
0.546825 0.009312 1.072540 
0.708731 0.010327 0.973756 
0.853652 0.011979 0.851025 
0.977901 0.013188 0.707433 
1.078741 0.013375 0.546084 
1.152683 0.013746 0.371524 
1.198310 0.013748 0.187060 
1.200794 0.012517 -0.191767 
1.156994 0.011658 -0.376525 
1.084329 0.010161 -0.551879 
0.984625 0.008832 -0.713230 
0.860264 0.006753 -0.857295 
0.714702 0.004970 -0.980245 
0.552942 0.002781 -1.078088 
0.376720 0.000651 -1.148889 
0.191152 -0.000800 -1.191821 
-0.187138 -0.005457 -1.189339 
-0.371404 -0.008132 -1.144523 
-0.546644 -0.009252 -1.072337 
-0.708358 -0.010807 -0.973843 
-0.853664 -0.011875 -0.851154 
-0.977995 -0.013029 -0.707540 
-1.078864 -0.013216 -0.546188 
-1.152769 -0.013613 -0.371595 
-1.198268 -0.013664 -0.187108 
0.819060 -0.376252 -0.420217 
0.404200 -0.771021 -0.447096 
0.394008 -0.369387 -0.845359 
0.897062 -0.278214 -0.342413 
0.280184 -0.870769 -0.339018 
0.684605 -0.321364 -0.656164 
0.549996 -0.610530 -0.544687 
0.864485 -0.454651 -0.113783 
0.172628 -0.611161 -0.769913 
0.619575 -0.161410 -0.779613 
0.883483 -0.139594 -0.467278 
0.192411 -0.834501 -0.485002 
0.964673 -0.119088 -0.271667 
0.808223 -0.275482 -0.523912 
0.673699 -0.618314 -0.348268 
0.447033 -0.832517 -0.206432 
0.614078 -0.726747 -0.179994 
0.524494 -0.463667 -0.709571 
0.806743 -0.128068 -0.594128 
0.544419 -0.727089 -0.352854 
0.996888 -0.102411 -0.118188 
0.761869 -0.588626 -0.157159 
0.134841 -0.927077 -0.282161 
0.941175 -0.283900 -0.164256 
0.733921 -0.449679 -0.492159 
0.250078 -0.923821 -0.157428 
0.552883 -0.290360 -0.786786 
0.324394 -0.689262 -0.630477 
0.830635 -0.445157 -0.295238 
0.503977 -0.174132 -0.856360 
0.136157 -0.746368 -0.640544 
0.190821 -0.475408 -0.861968 
0.176254 -0.315936 -0.939106 
0.346294 -0.544912 -0.759083 
0.635824 -0.464433 -0.605951 
0.105226 -0.960577 -0.130429 
0.442069 -0.586375 -0.666432 
0.332499 -0.212193 -0.927443 
0.208521 -0.132405 -0.977380 
0.523418 0.584517 -0.642452 
0.529037 0.785211 -0.359802 
0.833481 0.384655 -0.462003 
0.418138 0.467461 -0.791288 
0.373381 0.879504 -0.300030 
0.303911 0.310408 -0.908818 
0.178511 0.159592 -0.977208 
0.781382 0.227077 -0.619102 
0.697419 0.545362 -0.513192 
0.527978 0.848459 -0.169274 
0.617574 0.182782 -0.787321 
0.203899 0.863764 -0.437696 
0.183279 0.466689 -0.864704 
0.580630 0.687034 -0.474206 
0.172776 0.938488 -0.251517 
0.401191 0.140942 -0.917799 
0.134488 0.315413 -0.941164 
0.652434 0.709641 -0.338204 
0.131357 0.613081 -0.769602 
0.186678 0.742466 -0.630364 
0.319781 0.618594 -0.720725 
0.885502 0.501175 -0.174146 
0.629901 0.399372 -0.695108 
0.398188 0.761926 -0.519251 
0.788427 0.565449 -0.341001 
0.146351 0.969386 -0.106128 
0.311635 0.937823 -0.136392 
0.735969 0.700628 -0.149042 
0.967988 0.163740 -0.291524 
0.489386 0.307748 -0.833007 
0.881868 0.424321 -0.321896 
0.897825 0.184861 -0.457256 
0.965122 0.309757 -0.181276 
0.920607 0.298913 -0.347274 
1.003687 0.146890 -0.136090 
0.748637 0.393823 -0.577973 
0.475187 0.469324 0.766968 
0.474816 0.809610 0.389244 
0.855208 0.428758 0.376748 
0.340698 0.322251 0.897192 
0.324936 0.902157 0.301602 
0.929623 0.355662 0.257744 
0.982646 0.188188 0.210166 
0.572191 0.642161 0.551235 
0.117059 0.482258 0.878341 
0.765903 0.183523 0.641130 
0.448817 0.172019 0.888286 
0.452239 0.885169 0.187768 
0.892088 0.489623 0.170027 
0.264865 0.149998 0.961026 
0.275239 0.948788 0.146905 
0.963387 0.340628 0.123857 
0.622756 0.174586 0.778547 
0.526489 0.303603 0.812662 
0.333155 0.632888 0.717285 
0.803481 0.634831 0.116542 
0.695710 0.734233 0.173604 
0.607007 0.506818 0.646822 
0.208464 0.751740 0.635296 
0.785434 0.592455 0.302533 
0.653711 0.696203 0.372493 
0.408362 0.724218 0.581972 
0.576848 0.809999 0.227265 
0.130369 0.971394 0.128574 
0.112916 0.129484 0.992693 
0.483085 0.603268 0.663054 
0.162751 0.613259 0.783165 
0.724916 0.521274 0.504941 
0.658206 0.364403 0.688149 
0.163136 0.313992 0.945682 
0.185219 0.939024 0.273584 
0.803117 0.336395 0.537200 
0.854266 0.159163 0.526711 
0.234605 0.860394 0.459093 
0.905563 0.251681 0.401987 
0.267007 0.481374 0.849039 
0.492860 -0.754158 0.332423 
0.321245 -0.354542 0.864177 
0.307487 -0.841886 0.350017 
0.138312 -0.449370 0.869169 
0.512065 -0.141524 0.843292 
0.406413 -0.850754 0.179478 
0.594280 -0.518797 0.568533 
0.262710 -0.161723 0.949221 
0.207300 -0.926781 0.171547 
0.909928 -0.348049 0.157575 
0.762430 -0.374772 0.491478 
0.723964 -0.628109 0.134080 
0.870936 -0.166136 0.455649 
0.960328 -0.158604 0.231091 
0.500562 -0.302167 0.795855 
0.550369 -0.645273 0.460783 
0.593174 -0.740401 0.154766 
0.693275 -0.605840 0.295967 
[...]
POINT_DATA 1108
SCALARS u float 1
LOOKUP_TABLE default
0.025676
0.025280
0.029459
0.029562
0.008773
0.008441
0.019885
0.019952
0.024019
0.024350
0.007089
0.006711
0.029158
0.032074
0.032480
0.030173
0.026207
0.023708
0.024719
0.034225
0.038113
0.038609
0.035522
0.030644
0.025596
0.023437
0.028791
0.031836
0.031899
0.029724
0.026121
0.023729
0.024927
0.034445
0.038095
0.038744
0.035676
0.030685
0.025862
0.023695
0.011386
0.015270
0.020243
0.024772
0.028609
0.030706
0.030806
0.026668
0.022841
0.018438
0.014531
0.011413
0.008918
0.007848
0.010889
0.015103
0.020059
0.024463
0.028315
0.030439
0.030660
0.026553
0.022752
0.018792
0.014658
0.011590
0.009274
0.008075
0.024868
0.023524
0.021437
0.019064
0.016418
0.013095
0.010063
0.009345
0.012368
0.015597
0.018440
0.021376
0.023549
0.024842
0.024665
0.023523
0.021349
0.019036
0.016166
0.012581
0.009768
0.009350
0.011932
0.015376
0.018676
0.021683
0.023863
0.025193
0.025153
0.029394
0.031535
0.030580
0.027363
0.022811
0.018007
0.015718
0.018508
0.030029
0.034714
0.037474
0.036237
0.032246
0.027575
0.021688
0.016680
0.016216
0.024718
0.028936
0.031211
0.030015
0.027352
0.022991
0.018176
0.015718
0.018556
0.030026
0.034772
0.037545
0.036329
0.032480
0.027824
0.021930
0.016815
0.016173
0.021826
0.018652
0.015285
0.012367
0.009861
0.008314
0.007947
0.007830
0.007332
0.007519
0.008795
0.012181
0.015813
0.019396
0.022983
0.025337
0.026013
0.025805
0.021807
0.018723
0.015806
0.012823
0.009988
0.008153
0.007969
0.008080
0.007734
0.007256
0.008956
0.012146
0.015877
0.019533
0.023178
0.025568
0.026154
0.025877
0.020237
0.020187
0.019184
0.017995
0.015971
0.014228
0.012767
0.009743
0.007918
0.007366
0.008736
0.010098
0.011258
0.013266
0.015114
0.016475
0.017881
0.018990
0.020381
0.020390
0.019549
0.018187
0.016131
0.014182
0.012372
0.009660
0.007477
0.006859
0.008779
0.009942
0.011620
0.013202
0.015035
0.016428
0.017838
0.018899
0.021186
0.026330
0.010968
0.021416
0.029089
0.016237
0.021863
0.027274
0.013235
0.014655
0.020529
0.023299
0.022828
0.018942
0.027766
0.034814
0.034463
0.015203
0.018703
0.029707
0.023670
0.030617
0.028312
0.023505
0.021004
0.033493
0.013153
0.019099
0.024439
0.012595
0.017199
0.009828
0.008032
0.013994
0.017964
0.031024
0.017360
0.009513
0.008432
0.021775
0.024226
0.028424
0.017993
0.023586
0.013964
0.010697
0.023913
0.026279
0.024976
0.018899
0.024928
0.016489
0.024560
0.026673
0.013515
0.013331
0.026995
0.020211
0.022665
0.019127
0.032417
0.022377
0.022045
0.029789
0.026837
0.024161
0.029889
0.027468
0.017436
0.030576
0.026517
0.030893
0.029357
0.028038
0.025944
0.018728
0.023261
0.029219
0.013939
0.021850
0.029759
0.027709
0.023929
0.011916
0.021766
0.014535
0.023606
0.031930
0.010888
0.023030
0.030863
0.018255
0.017424
0.017321
0.031362
0.029001
0.023110
0.016685
0.029864
0.027363
0.020425
0.025985
0.025277
0.008988
0.020772
0.014048
0.026757
0.022011
0.010559
0.022533
0.025629
0.023404
0.019696
0.026366
0.014037
0.040046
0.020236
0.038811
0.019920
0.017044
0.040381
0.031895
0.013655
0.037336
0.026795
0.027848
0.035488
0.023038
0.023972
0.021523
0.036607
0.039511
0.035893
0.010489
0.014556
0.032427
0.034879
0.036898
0.030917
0.033874
0.021482
0.036601
0.028035
0.032939
0.030308
0.025485
0.032588
0.026251
0.025623
0.019226
0.016638
0.026138
0.033424
0.021907
0.024227
0.027694
0.018005
0.023628
0.014332
0.010958
0.023755
0.026162
0.024968
0.019039
0.025125
0.016508
0.024249
0.026749
0.013798
0.013316
0.026696
0.020350
0.022871
0.019389
0.031959
0.022374
0.022276
0.029874
0.027007
0.024198
0.029369
0.027047
0.017558
0.030213
0.025987
0.030366
0.028711
0.027732
0.025669
0.018563
0.023301
0.029181
0.013463
0.021557
0.029776
0.027556
0.023734
0.011593
0.021868
0.014086
0.023532
0.031339
0.010634
0.023159
0.030653
0.018362
0.017383
0.017373
0.030944
0.028462
0.022829
0.016782
0.029972
0.027198
0.020366
0.025911
0.025352
0.008601
0.020747
0.013908
0.026418
0.021918
0.010254
0.022376
0.025560
0.023490
0.019613
0.026681
0.014126
0.039724
0.019942
0.038423
0.019381
0.016909
0.040129
0.031558
0.013162
0.037115
0.026554
0.027615
0.035285
0.022871
0.023774
0.021285
0.036258
0.039327
0.035534
0.010010
0.014207
0.032044
0.034506
0.036583
0.030715
0.033447
0.021288
0.036194
0.027549
0.032646
0.030051
0.025227
0.032243
0.025999
0.025281
0.019173
0.016348
0.025901
0.033266
0.021103
0.026688
0.011155
0.021248
0.029502
0.016201
0.021997
0.027114
0.013445
0.014683
0.020262
0.023783
0.022581
0.018814
0.027669
0.034784
0.033927
0.015341
0.018554
0.029372
0.023345
0.030604
0.028247
0.023226
0.020956
0.033424
0.013236
0.019425
0.024388
0.012771
0.017464
0.010083
0.008184
0.014298
0.018019
0.030765
0.017655
0.009660
0.008566
0.033186
0.025972
0.016216
0.018997
0.037140
0.016265
0.034945
0.011716
0.015760
0.033215
0.007702
0.016502
0.028067
0.022566
0.014665
0.029806
0.011235
0.017348
0.037713
0.028688
0.026676
0.039104
0.015231
0.031104
0.014414
0.030620
0.019228
0.037330
0.016127
0.030826
0.020556
0.021260
0.026330
0.030531
0.025209
0.036919
0.022704
0.013476
0.024849
0.015807
0.019895
0.012665
0.021616
0.018034
0.033163
0.017397
0.034981
0.033226
0.035746
0.023516
0.038767
0.027524
0.034626
0.028818
0.016827
0.032259
0.022290
0.013808
0.031641
0.009924
0.009732
0.008774
0.023824
0.017793
0.011688
0.015691
0.029048
0.017083
0.027823
0.010275
0.017674
0.027089
0.008213
0.021554
0.014127
0.012164
0.018191
0.022914
0.015111
0.011445
0.028381
0.020042
0.020112
0.030405
0.020421
0.024409
0.009729
0.020884
0.015981
0.030321
0.021399
0.023985
0.015218
0.013805
0.019234
0.021628
0.016645
0.027438
0.015497
0.017829
0.019666
0.011136
0.017948
0.014823
0.017703
0.014626
0.025318
0.015902
0.027139
0.024884
0.028834
0.017140
0.030577
0.018048
0.024840
0.023422
0.021367
0.014848
0.023697
0.013735
0.025287
0.012160
0.008538
0.009901
0.021278
0.021114
0.015321
0.012195
0.025701
0.010584
0.026074
0.014514
0.008536
0.021889
0.017150
0.027578
0.012913
0.012973
0.030796
0.010489
0.020530
0.012495
0.023006
0.017415
0.013109
0.019303
0.029580
0.009841
0.013581
0.022356
0.010669
0.021483
0.026105
0.008577
0.018966
0.016611
0.023820
0.024433
0.019534
0.026699
0.015692
0.029006
0.009816
0.014515
0.023272
0.011487
0.025623
0.013673
0.028963
0.012958
0.028482
0.018840
0.014895
0.013697
0.023480
0.024965
0.019209
0.022757
0.007318
0.016585
0.027216
0.017955
0.015982
0.016362
0.016186
0.015346
0.011174
0.019021
0.027155
0.007941
0.014155
0.007518
0.014663
0.008555
0.016933
0.011348
0.026376
0.016436
0.030341
0.007807
0.022713
0.017072
0.034079
0.012033
0.009412
0.011230
0.014470
0.007275
0.016584
0.033168
0.014614
0.009497
0.015828
0.007601
0.015374
0.023554
0.022848
0.031584
0.016824
0.024716
0.019104
0.014294
0.014898
0.007691
0.008821
0.028476
0.021019
0.029438
0.012483
0.032436
0.008535
0.020542
0.006694
0.016422
0.011159
0.014069
0.008936
0.013311
0.010530
0.014924
0.017373
0.007663
0.019908
0.010941
0.029090
0.013442
0.026618
0.026115
0.025252
0.019604
0.012784
0.027699
0.015457
0.026022
0.014532
0.025926
0.015923
0.013363
0.019405
0.016308
0.012679
0.012278
0.019666
0.009825
0.013026
0.022149
0.028377
0.030343
0.021028
0.014452
0.021536
0.011263
0.022778
0.029373
0.015915
0.017097
0.021951
0.016253
0.009873
0.008400
0.019052
0.016083
0.019438
0.021986
0.017976
0.026787
0.010832
0.016077
0.015205
0.012577
0.014613
0.010012
0.022886
0.014494
0.024993
0.014438
0.026119
0.028560
0.029504
0.018328
0.021196
0.024783
0.019240
0.022548
0.023258
0.017463
0.009998
0.025684
0.008206
0.006779
0.011227
0.018894
0.024884
0.007961
0.014251
0.007519
0.014773
0.028121
0.008426
0.017030
0.027547
0.011151
0.026498
0.016139
0.007767
0.022890
0.016375
0.034403
0.012127
0.009442
0.011159
0.014578
0.007253
0.016802
0.021807
0.014526
0.009318
0.015950
0.007450
0.015437
0.023618
0.016464
0.023753
0.018810
0.014031
0.014940
0.007615
0.008847
0.029050
0.020181
0.029329
0.012338
0.032357
0.008364
0.020548
0.006689
0.016546
0.011241
0.014204
0.008880
0.013398
0.010411
0.014881
0.017376
0.007281
0.010646
0.019689
0.030236
0.013532
0.022004
0.033592
0.031937
0.033519
0.026306
0.014870
0.019217
0.037449
0.016451
0.035178
0.015849
0.033336
0.016479
0.028354
0.014757
0.022834
0.014816
0.030133
0.011431
0.016984
0.037986
0.029014
0.026905
0.039310
0.015324
0.031392
0.010567
0.030942
0.019459
0.037521
0.016162
0.030966
0.020794
0.012605
0.008356
0.020422
0.026555
0.030884
0.025235
0.037227
0.022970
0.013628
0.025104
0.015104
0.019519
0.012708
0.021868
0.018184
0.033486
0.017610
0.035332
0.033576
0.035936
0.023775
0.039038
0.027780
0.034924
0.028943
0.016857
0.022220
0.032531
0.009837
0.031902
0.007943
0.007084
0.014277
0.023660
0.027218
0.016028
0.010795
0.017090
0.010275
0.027754
0.021619
0.008066
0.025137
0.025242
0.019638
0.023018
0.020126
0.015575
0.030044
0.022185
0.012365
0.014520
0.018706
0.011282
0.015941
0.011978
0.024879
0.018801
0.020222
0.009265
0.017755
0.009200
0.027023
0.025531
0.023433
0.021201
0.021633
0.014186
0.015942
0.025312
0.017254
0.028283
0.025346
0.028574
0.019820
0.019677
0.016920
0.016311
0.013481
0.014470
0.014519
0.016185
0.010870
0.017611
0.016717
0.007712
0.021512
0.019064
0.020761
0.029827
0.018000
0.030474
0.023225
0.028458
0.008721
0.019540
0.027031
0.016171
0.020273
0.008062
0.010419
0.027653
0.011464
0.007375
0.020855
0.027248
0.021117
0.021418
0.025539
0.026685
0.019720
0.024079
0.015881
0.013547
0.036561
0.030439
0.029439
0.027174
0.027069
0.029017
0.026837
0.027773
0.028063
0.023887
0.010284
0.015304
0.021705
0.034910
0.040825
0.024153
0.028830
0.035202
0.028579
0.027016
0.022373
0.017345
0.016660
0.032669
0.024228
0.017519
0.026509
0.026823
0.010822
0.028127
0.027578
0.020332
0.025336
0.008049
0.011299
0.020235
0.015683
0.033867
0.029201
0.025418
0.028998
0.012178
0.011622
0.009072
0.020587
0.031934
0.009599
0.014779
0.026200
0.029435
0.028479
0.026486
0.009926
0.016855
0.023827
0.012896
0.010676
0.023780
0.024803
0.014761
0.019207
0.023986
0.027376
0.025351
0.030045
0.031377
0.038977
0.033824
0.035795
0.021760
0.030686
0.037415
0.026067
0.016946
0.020810
0.014332
0.009570
0.010966
0.031449
0.015277
0.026277
0.010369
