# vtk DataFile Version 2.0
Unstructured Grid Example
ASCII
DATASET UNSTRUCTURED_GRID
POINTS 1108 float
1.002415 0.000925 -0.022801 
-1.002416 -0.000897 0.022587 
0.001184 1.013229 -0.003482 
-0.001023 -1.013528 0.003619 
-0.022438 -0.003507 0.984197 
0.022342 0.003635 -0.984324 
1.202306 0.000643 -0.015110 
-1.202269 -0.000410 0.015122 
0.000839 1.212813 -0.002362 
-0.000772 -1.212626 0.002563 
-0.014987 -0.002366 1.185127 
0.015065 0.002455 -1.185046 
0.983509 0.197816 -0.022931 
0.927107 0.387600 -0.022325 
0.835354 0.562814 -0.020690 
0.711381 0.716418 -0.018595 
0.559691 0.842747 -0.015101 
0.385981 0.936614 -0.011677 
0.197323 0.994224 -0.007801 
-0.195015 0.993008 0.000591 
-0.383826 0.934840 0.005079 
-0.557198 0.840706 0.009664 
-0.709242 0.714198 0.013651 
-0.834090 0.560537 0.016632 
-0.925981 0.385460 0.019663 
-0.983023 0.196050 0.021452 
-0.983522 -0.197632 0.022741 
-0.926810 -0.387422 0.022139 
-0.834776 -0.562554 0.020540 
-0.710837 -0.716263 0.018433 
-0.559406 -0.842757 0.015299 
-0.385843 -0.936639 0.011990 
-0.197308 -0.994140 0.007747 
0.195337 -0.993377 -0.000604 
0.383883 -0.935300 -0.005018 
0.557298 -0.840876 -0.009904 
0.709201 -0.714233 -0.013593 
0.834056 -0.560595 -0.016653 
0.925893 -0.385414 -0.019711 
0.983035 -0.195979 -0.021510 
-0.022121 -0.199456 0.966954 
-0.021131 -0.388292 0.912974 
-0.019070 -0.563137 0.824176 
-0.016505 -0.716814 0.703386 
-0.013422 -0.843559 0.554326 
-0.009356 -0.937363 0.383741 
-0.005212 -0.994948 0.197651 
0.003380 -0.992302 -0.190618 
0.007627 -0.932431 -0.376378 
0.011711 -0.836744 -0.546730 
0.015106 -0.709261 -0.695580 
0.017905 -0.555303 -0.817351 
0.020292 -0.380847 -0.907835 
0.021628 -0.192210 -0.964257 
0.022092 0.199397 -0.967004 
0.020893 0.388268 -0.913387 
0.019237 0.563189 -0.824231 
0.016604 0.716768 -0.703198 
0.013382 0.843450 -0.554205 
0.009511 0.937335 -0.383603 
0.005409 0.994931 -0.197577 
-0.003192 0.992313 0.190685 
-0.007714 0.932557 0.376077 
-0.011719 0.836680 0.546804 
-0.015229 0.709355 0.695686 
-0.018068 0.555366 0.817219 
-0.020361 0.380971 0.908092 
-0.021774 0.192340 0.964423 
0.974301 0.000221 0.170325 
0.909107 -0.000555 0.354490 
0.810057 -0.001078 0.524431 
0.682352 -0.001640 0.673837 
0.529770 -0.002474 0.798379 
0.357504 -0.002882 0.894125 
0.171504 -0.003178 0.957299 
-0.217244 -0.003494 0.973953 
-0.405570 -0.003829 0.926123 
-0.579061 -0.003349 0.841447 
-0.730854 -0.003126 0.721794 
-0.853780 -0.002932 0.573830 
-0.941466 -0.002044 0.402686 
-0.991729 -0.001530 0.216284 
-0.974271 -0.000174 -0.170500 
-0.909291 0.000540 -0.354696 
-0.810462 0.001012 -0.524524 
-0.682629 0.001630 -0.673955 
-0.529962 0.002284 -0.798033 
-0.357491 0.002817 -0.894079 
-0.171559 0.003241 -0.957327 
0.217054 0.003701 -0.973951 
0.405473 0.003826 -0.926047 
0.578824 0.003483 -0.841324 
0.730682 0.003192 -0.721811 
0.853801 0.002898 -0.573790 
0.941488 0.002200 -0.402811 
0.991512 0.001636 -0.216331 
1.187818 0.189496 -0.015160 
1.144444 0.373883 -0.015089 
1.073263 0.549216 -0.014362 
0.975216 0.711500 -0.013719 
0.853101 0.856759 -0.012517 
0.709961 0.980588 -0.010388 
0.548847 1.080609 -0.008824 
0.373940 1.153862 -0.006731 
0.189632 1.198171 -0.004940 
-0.188013 1.197349 0.000206 
-0.372355 1.152059 0.002905 
-0.547031 1.078807 0.004596 
-0.708300 0.978453 0.006543 
-0.851182 0.854701 0.008627 
-0.973166 0.710095 0.011068 
-1.071860 0.547707 0.012254 
-1.143284 0.372700 0.013397 
-1.187230 0.188457 0.014382 
-1.187727 -0.189506 0.015229 
-1.144155 -0.373770 0.015055 
-1.072802 -0.549065 0.014393 
-0.974764 -0.711220 0.013613 
-0.853083 -0.856558 0.012135 
-0.709942 -0.980397 0.010338 
-0.548726 -1.080629 0.008722 
-0.373867 -1.153797 0.006768 
-0.189615 -1.198235 0.004960 
0.188200 -1.197438 -0.000157 
0.372519 -1.152435 -0.002826 
0.547281 -1.078980 -0.004667 
0.708452 -0.978594 -0.006685 
0.851290 -0.854608 -0.008727 
0.973203 -0.710033 -0.011283 
1.071857 -0.547651 -0.012322 
1.143262 -0.372635 -0.013410 
1.187248 -0.188333 -0.014450 
0.001959 -1.196436 -0.184952 
0.003984 -1.150044 -0.367674 
0.006286 -1.074927 -0.540252 
0.007960 -0.973493 -0.698574 
0.010163 -0.848591 -0.839601 
0.012135 -0.703266 -0.959194 
0.012995 -0.541943 -1.055128 
0.013900 -0.367797 -1.125657 
0.014679 -0.185036 -1.169439 
0.014825 0.190021 -1.171808 
0.014430 0.373192 -1.130607 
0.013701 0.548375 -1.061449 
0.012637 0.710703 -0.966281 
0.011124 0.855947 -0.846327 
0.008984 0.980231 -0.705860 
0.007334 1.080910 -0.546447 
0.005687 1.154682 -0.372776 
0.003029 1.198750 -0.190147 
-0.002065 1.196240 0.184841 
-0.003950 1.150211 0.367501 
-0.005820 1.074603 0.540788 
-0.007919 0.973410 0.698572 
-0.010164 0.848685 0.839556 
-0.012352 0.703287 0.959484 
-0.013102 0.541990 1.055203 
-0.014014 0.367819 1.125860 
-0.014743 0.184961 1.169502 
-0.014978 -0.189892 1.171837 
-0.014432 -0.373317 1.130343 
-0.013685 -0.548224 1.061403 
-0.012686 -0.710607 0.966520 
-0.011057 -0.855912 0.846507 
-0.008931 -0.980305 0.706004 
-0.007302 -1.081006 0.546539 
-0.005644 -1.154707 0.372904 
-0.002967 -1.198807 0.190394 
-1.195177 -0.000987 0.202145 
-1.157328 -0.001088 0.386299 
-1.089545 -0.001656 0.561435 
-0.992578 -0.001638 0.722524 
-0.869513 -0.002328 0.863957 
-0.725288 -0.002333 0.983086 
-0.562317 -0.002379 1.077211 
-0.386256 -0.002305 1.142141 
-0.202075 -0.002461 1.178295 
0.171017 -0.002122 1.162930 
0.351590 -0.002099 1.113297 
0.522347 -0.001838 1.037506 
0.680583 -0.001473 0.938551 
0.823881 -0.001224 0.818407 
0.947546 -0.001011 0.678004 
1.049385 -0.000429 0.521118 
1.127840 -0.000018 0.351075 
1.179655 0.000273 0.171307 
1.195111 0.001062 -0.202381 
1.157454 0.001390 -0.386222 
1.089663 0.001683 -0.561437 
0.992425 0.001769 -0.722448 
0.869559 0.002270 -0.863850 
0.725332 0.002191 -0.983016 
0.562263 0.002344 -1.077082 
0.386047 0.002391 -1.142189 
0.202080 0.002401 -1.178168 
-0.171152 0.002082 -1.163069 
-0.351813 0.002052 -1.113294 
-0.522336 0.001931 -1.037305 
-0.680680 0.001831 -0.938962 
-0.824012 0.001211 -0.818582 
-0.947806 0.000962 -0.678211 
-1.049732 0.000367 -0.521316 
-1.127992 -0.000015 -0.351152 
-1.179651 -0.000238 -0.171354 
0.835439 -0.401216 -0.430711 
0.429104 -0.801757 -0.446374 
0.414564 -0.378505 -0.839603 
0.907848 -0.301226 -0.354800 
0.304579 -0.904567 -0.335811 
0.703048 -0.338642 -0.661858 
0.573884 -0.636956 -0.547185 
0.876346 -0.485729 -0.125647 
0.197505 -0.622157 -0.757235 
0.635874 -0.171022 -0.781775 
0.893015 -0.156741 -0.478873 
0.217884 -0.860113 -0.477971 
0.967262 -0.138810 -0.286121 
0.823552 -0.295604 -0.533745 
0.696439 -0.651434 -0.355474 
0.470772 -0.873039 -0.207853 
0.636583 -0.766269 -0.185776 
0.546090 -0.480999 -0.709624 
0.819688 -0.142242 -0.602901 
0.569177 -0.762175 -0.356191 
0.993008 -0.123047 -0.134679 
0.779675 -0.624004 -0.166448 
0.158662 -0.959350 -0.275448 
0.947080 -0.309293 -0.178340 
0.754030 -0.475446 -0.500281 
0.272705 -0.962662 -0.153692 
0.571624 -0.301869 -0.787161 
0.349125 -0.710473 -0.625789 
0.847433 -0.473951 -0.305695 
0.520728 -0.180588 -0.854026 
0.161801 -0.762787 -0.629547 
0.214108 -0.481398 -0.847863 
0.197514 -0.316856 -0.922982 
0.369254 -0.559545 -0.753211 
0.657510 -0.486293 -0.610718 
0.126704 -0.996572 -0.123609 
0.465239 -0.606544 -0.665054 
0.350985 -0.214417 -0.917870 
0.226666 -0.130245 -0.962850 
0.522088 0.595957 -0.650780 
0.518623 0.799718 -0.372594 
0.828461 0.382046 -0.474321 
0.421919 0.479245 -0.795013 
0.361523 0.901697 -0.312514 
0.313231 0.320529 -0.905029 
0.192318 0.168537 -0.965051 
0.784516 0.223474 -0.628318 
0.692168 0.550143 -0.524379 
0.511792 0.861193 -0.184470 
0.625694 0.182727 -0.791328 
0.196361 0.892926 -0.446539 
0.189402 0.483531 -0.861745 
0.573560 0.698762 -0.485746 
0.159939 0.969796 -0.261772 
0.413289 0.144963 -0.913823 
0.145118 0.329094 -0.931709 
0.640650 0.716904 -0.352257 
0.133845 0.635496 -0.770370 
0.184474 0.768041 -0.635976 
0.320955 0.637104 -0.725377 
0.867421 0.495025 -0.191650 
0.631992 0.404210 -0.702378 
0.392634 0.781785 -0.529388 
0.777322 0.565756 -0.355319 
0.130026 1.000342 -0.116724 
0.295957 0.961411 -0.149225 
0.716864 0.702122 -0.166538 
0.961472 0.151280 -0.306870 
0.496485 0.313984 -0.835309 
0.871224 0.419319 -0.336454 
0.896971 0.176351 -0.469558 
0.950341 0.298563 -0.198579 
0.912881 0.290923 -0.361653 
0.991394 0.131650 -0.153780 
0.747099 0.394643 -0.587974 
0.439968 0.456464 0.729981 
0.444730 0.809625 0.364934 
0.819050 0.412195 0.345386 
0.309648 0.310159 0.861222 
0.299505 0.913387 0.283326 
0.897642 0.339399 0.229889 
0.955959 0.169543 0.184532 
0.536830 0.632250 0.519421 
0.089223 0.479012 0.850933 
0.730090 0.164588 0.604371 
0.417521 0.156827 0.850902 
0.427480 0.893677 0.168669 
0.861370 0.476528 0.144541 
0.237972 0.138250 0.927982 
0.253505 0.967984 0.132315 
0.936046 0.325095 0.099567 
0.588116 0.156713 0.739661 
0.491686 0.288078 0.773669 
0.301037 0.627638 0.687049 
0.775006 0.627196 0.093346 
0.667096 0.730099 0.150184 
0.569802 0.492466 0.610672 
0.179243 0.754812 0.612068 
0.751855 0.580578 0.274522 
0.620122 0.687958 0.344361 
0.376212 0.720427 0.553744 
0.549027 0.810443 0.204882 
0.109866 0.998181 0.117568 
0.089638 0.120229 0.964992 
0.448310 0.593163 0.629654 
0.133701 0.612276 0.757229 
0.687461 0.506153 0.471345 
0.620713 0.347409 0.649855 
0.135936 0.306506 0.915251 
0.161543 0.958594 0.259475 
0.764933 0.318334 0.501643 
0.819831 0.139287 0.493054 
0.207264 0.870214 0.439829 
0.871775 0.233204 0.370800 
0.236151 0.473910 0.816820 
0.503593 -0.795213 0.329168 
0.307106 -0.375427 0.844711 
0.319355 -0.883674 0.351794 
0.128978 -0.470356 0.857453 
0.488096 -0.160296 0.812781 
0.423154 -0.894614 0.179632 
0.589436 -0.549120 0.554326 
0.243059 -0.177600 0.923370 
0.224001 -0.969386 0.176532 
0.908418 -0.376410 0.141410 
0.752002 -0.402335 0.471558 
0.735237 -0.665239 0.124913 
0.850943 -0.189644 0.430079 
0.946820 -0.182504 0.209776 
0.483449 -0.323974 0.771860 
0.553924 -0.681013 0.452954 
0.607871 -0.782133 0.149637 
0.699177 -0.642081 0.285679 
[...]
POINT_DATA 1108
SCALARS u float 1
LOOKUP_TABLE default
0.022948
0.022733
0.013731
0.014041
0.027667
0.027534
0.015298
0.015297
0.013056
0.012906
0.021246
0.021368
0.023253
0.023087
0.022263
0.021231
0.019293
0.017590
0.015698
0.012238
0.012134
0.013467
0.015530
0.017554
0.019969
0.021589
0.023046
0.022830
0.021945
0.020918
0.019395
0.017792
0.015598
0.012608
0.012532
0.013768
0.015490
0.017586
0.020001
0.021646
0.026452
0.024432
0.021775
0.019506
0.018107
0.016445
0.015307
0.012809
0.013079
0.015593
0.019123
0.022804
0.025934
0.027372
0.026392
0.024037
0.021920
0.019604
0.018013
0.016504
0.015347
0.012747
0.013358
0.015535
0.019168
0.023013
0.025821
0.027375
0.025601
0.031834
0.037807
0.041501
0.042033
0.039085
0.033437
0.023446
0.023313
0.025741
0.028097
0.028978
0.026713
0.023901
0.025439
0.031566
0.037500
0.041241
0.042178
0.039124
0.033385
0.023299
0.023210
0.025494
0.027968
0.028966
0.026833
0.023852
0.015482
0.015721
0.015566
0.015666
0.015663
0.014988
0.014978
0.014617
0.013986
0.012128
0.011280
0.010876
0.010479
0.010934
0.012272
0.012872
0.013678
0.014540
0.015536
0.015610
0.015439
0.015343
0.015248
0.014824
0.014901
0.014563
0.014051
0.012222
0.011644
0.011113
0.010714
0.010989
0.012450
0.012925
0.013678
0.014603
0.011712
0.010139
0.009633
0.010785
0.013528
0.016933
0.019370
0.021120
0.021723
0.020128
0.018097
0.016149
0.014459
0.013551
0.013021
0.013909
0.014700
0.014070
0.011570
0.010325
0.008887
0.010736
0.013558
0.016891
0.019382
0.021043
0.021731
0.020206
0.018272
0.016124
0.014392
0.013449
0.013044
0.013985
0.014724
0.014156
0.017551
0.022331
0.026334
0.027772
0.026151
0.023531
0.019415
0.015631
0.016128
0.027940
0.034008
0.038884
0.040700
0.038939
0.035917
0.030877
0.023879
0.017336
0.017713
0.022386
0.026428
0.027613
0.026120
0.023518
0.019309
0.015440
0.016178
0.027746
0.033882
0.039060
0.040330
0.038720
0.035591
0.030503
0.023729
0.017292
0.023392
0.014799
0.020477
0.023461
0.012978
0.024438
0.018808
0.018862
0.018124
0.025185
0.026585
0.013797
0.024085
0.025540
0.018994
0.013863
0.015889
0.020528
0.027715
0.016391
0.022296
0.017693
0.012541
0.021246
0.022895
0.012299
0.023113
0.015972
0.021075
0.023171
0.015930
0.020155
0.022108
0.018004
0.022109
0.012603
0.018005
0.021625
0.022792
0.026703
0.024144
0.029061
0.024925
0.021283
0.023311
0.023549
0.029667
0.028203
0.021378
0.027566
0.019965
0.022100
0.026645
0.017997
0.024056
0.023242
0.025416
0.020979
0.020732
0.023318
0.024563
0.028665
0.023909
0.027111
0.016122
0.018299
0.023172
0.025973
0.026125
0.026990
0.028915
0.024583
0.027394
0.023675
0.029411
0.035944
0.020241
0.029614
0.036522
0.015707
0.026863
0.026570
0.028432
0.027290
0.039642
0.040332
0.016940
0.023900
0.035948
0.015029
0.024193
0.042307
0.040081
0.028160
0.021684
0.020700
0.034258
0.021679
0.024835
0.024086
0.024806
0.018935
0.013467
0.031120
0.030876
0.025149
0.031304
0.038492
0.031513
0.013830
0.035665
0.036874
0.016882
0.032035
0.031586
0.016673
0.032057
0.014643
0.025795
0.039734
0.013224
0.028434
0.034127
0.013115
0.021940
0.031075
0.017226
0.033205
0.025990
0.036219
0.021751
0.015275
0.020672
0.030187
0.028912
0.018038
0.015298
0.018694
0.019585
0.024353
0.038407
0.016022
0.029761
0.025960
0.023969
0.035015
0.022233
0.021811
0.026564
0.040182
0.037015
0.027330
0.013489
0.026886
0.024304
0.028723
0.025255
0.021534
0.023280
0.023439
0.029510
0.028367
0.021607
0.027927
0.019973
0.022239
0.026237
0.017825
0.024155
0.023235
0.025396
0.020865
0.020709
0.023349
0.024097
0.028803
0.023960
0.026937
0.016114
0.018409
0.022973
0.025756
0.026121
0.027041
0.028789
0.024256
0.027206
0.023596
0.029598
0.035279
0.020014
0.029086
0.036562
0.015849
0.026666
0.026429
0.028511
0.027174
0.039604
0.040286
0.017028
0.023682
0.035808
0.014950
0.023983
0.041859
0.039994
0.027760
0.021352
0.020777
0.034105
0.021125
0.024711
0.024048
0.024710
0.019025
0.013612
0.031143
0.030197
0.025100
0.031107
0.038148
0.031614
0.014077
0.035336
0.036490
0.016988
0.031991
0.031571
0.016541
0.031981
0.014594
0.025835
0.039965
0.013061
0.028343
0.034121
0.012938
0.021904
0.030874
0.017186
0.033033
0.025832
0.036053
0.021814
0.015012
0.020545
0.029995
0.028738
0.017932
0.015333
0.018723
0.019608
0.024300
0.038290
0.016046
0.029691
0.025761
0.023674
0.034853
0.022020
0.021763
0.026405
0.040096
0.037096
0.027079
0.013318
0.023401
0.014794
0.020627
0.023567
0.013042
0.024446
0.018789
0.018896
0.018153
0.025308
0.026635
0.013370
0.023936
0.025530
0.018929
0.013662
0.015459
0.020567
0.027746
0.016276
0.022201
0.017620
0.012545
0.021289
0.022884
0.012109
0.023236
0.016183
0.021038
0.023336
0.016027
0.020271
0.022197
0.018173
0.022089
0.012448
0.018174
0.021715
0.022850
0.017015
0.025886
0.027303
0.019425
0.010066
0.019192
0.010738
0.028975
0.015440
0.012043
0.026156
0.035262
0.014270
0.019051
0.032439
0.011564
0.038592
0.018062
0.011578
0.017433
0.013371
0.009630
0.025202
0.012503
0.022766
0.022025
0.015184
0.010685
0.018983
0.012799
0.028843
0.031122
0.020993
0.020412
0.026760
0.011405
0.024009
0.037263
0.012398
0.035468
0.023126
0.039289
0.014378
0.030484
0.011747
0.025311
0.010453
0.012865
0.009938
0.016817
0.009743
0.023534
0.016309
0.012961
0.015642
0.015391
0.029802
0.033593
0.010947
0.035467
0.021782
0.031780
0.025155
0.025421
0.018688
0.019393
0.023258
0.017935
0.021499
0.015989
0.015852
0.017345
0.015994
0.028265
0.018860
0.017396
0.017039
0.028287
0.022768
0.015027
0.024186
0.022633
0.018633
0.019260
0.016951
0.024727
0.015501
0.026347
0.017605
0.018782
0.015861
0.019786
0.022590
0.021537
0.026340
0.027655
0.024584
0.026622
0.022301
0.015286
0.027830
0.018251
0.025267
0.015248
0.026437
0.020448
0.028551
0.020065
0.026366
0.021588
0.018807
0.020576
0.022659
0.024608
0.027463
0.016481
0.014250
0.022855
0.028691
0.020675
0.018161
0.017991
0.016018
0.015284
0.034195
0.022086
0.011716
0.034156
0.024203
0.031365
0.020569
0.010843
0.030545
0.019608
0.011882
0.015710
0.021507
0.015908
0.015612
0.023579
0.012896
0.011764
0.032606
0.038294
0.040197
0.033866
0.016448
0.026009
0.010512
0.028581
0.036138
0.026281
0.016446
0.026452
0.015695
0.020876
0.018529
0.023825
0.026216
0.025822
0.034051
0.014190
0.018434
0.013750
0.013960
0.014928
0.013587
0.027801
0.019204
0.030459
0.020325
0.037477
0.040123
0.037561
0.029624
0.027962
0.032355
0.016112
0.025583
0.027855
0.022072
0.011940
0.038200
0.012588
0.009860
0.012693
0.021549
0.016286
0.012225
0.014776
0.021156
0.014515
0.018968
0.015468
0.018651
0.011942
0.016050
0.011530
0.014475
0.013770
0.015306
0.009662
0.012637
0.024263
0.019563
0.020594
0.026011
0.015897
0.015427
0.012162
0.018822
0.015794
0.023037
0.017469
0.015767
0.013778
0.010518
0.011587
0.013842
0.016288
0.018888
0.016046
0.021653
0.015546
0.012782
0.012976
0.011450
0.013600
0.010592
0.012844
0.012936
0.018245
0.013541
0.019026
0.023644
0.026096
0.017394
0.023812
0.017605
0.021382
0.015727
0.018081
0.018925
0.014437
0.011590
0.024217
0.011435
0.011757
0.019406
0.030335
0.033460
0.021219
0.010793
0.020499
0.011107
0.016301
0.012807
0.018903
0.037379
0.039120
0.024134
0.012586
0.033169
0.023025
0.040091
0.014288
0.018804
0.015606
0.012796
0.010169
0.025931
0.037216
0.025559
0.016639
0.012140
0.011324
0.019521
0.033050
0.027867
0.032271
0.035721
0.026451
0.025037
0.030710
0.014523
0.025871
0.014340
0.037911
0.037434
0.028388
0.040207
0.018342
0.032243
0.015498
0.026875
0.011074
0.014225
0.014080
0.019000
0.011937
0.020329
0.025929
0.012684
0.016071
0.032315
0.020125
0.032617
0.013497
0.028255
0.025289
0.021505
0.016201
0.012150
0.014638
0.021122
0.014455
0.018976
0.011884
0.015426
0.018737
0.012009
0.011761
0.016068
0.011141
0.013773
0.015417
0.009588
0.012737
0.024254
0.019424
0.020431
0.025978
0.015869
0.015425
0.010571
0.018805
0.015654
0.023102
0.017462
0.015780
0.014219
0.013444
0.016617
0.018962
0.015840
0.021646
0.015356
0.012830
0.013281
0.011219
0.015134
0.010487
0.013053
0.012766
0.018256
0.013420
0.019094
0.023552
0.026006
0.017204
0.023784
0.017488
0.021394
0.015788
0.018073
0.014171
0.019022
0.013312
0.024124
0.010567
0.011995
0.011816
0.016981
0.025884
0.029499
0.019545
0.010124
0.019290
0.010868
0.015497
0.012220
0.035460
0.014282
0.036709
0.019006
0.032631
0.011556
0.038266
0.018040
0.011679
0.017561
0.013425
0.009748
0.025426
0.012523
0.034999
0.021997
0.015210
0.010822
0.019072
0.012911
0.028475
0.023229
0.031333
0.032156
0.021205
0.020416
0.027026
0.011374
0.024232
0.037441
0.012359
0.034021
0.023140
0.039335
0.014295
0.030695
0.011721
0.025553
0.010421
0.012999
0.010090
0.016876
0.009821
0.023705
0.016233
0.013080
0.015727
0.030212
0.015432
0.029871
0.011031
0.025958
0.024233
0.022724
0.026805
0.025753
0.019452
0.016703
0.017922
0.015613
0.022243
0.015780
0.016536
0.018320
0.022384
0.027763
0.028368
0.018933
0.023203
0.018115
0.027990
0.019251
0.020850
0.016798
0.015243
0.017612
0.017216
0.025662
0.026218
0.017026
0.015306
0.015943
0.015447
0.027037
0.025898
0.028619
0.027456
0.025691
0.021409
0.022414
0.017988
0.026022
0.022857
0.027983
0.018171
0.028345
0.022135
0.024409
0.020688
0.019552
0.018514
0.015460
0.019390
0.016528
0.024579
0.024980
0.017497
0.014320
0.026304
0.024075
0.022742
0.015205
0.018530
0.022708
0.017213
0.020026
0.020524
0.031990
0.022559
0.024634
0.028168
0.027553
0.010214
0.005302
0.020446
0.019104
0.023190
0.020548
0.033732
0.019577
0.021080
0.022649
0.034319
0.026121
0.004731
0.013228
0.016386
0.015751
0.019823
0.031833
0.027051
0.030304
0.026323
0.028178
0.023002
0.034113
0.032850
0.029645
0.028294
0.018375
0.034807
0.034154
0.013229
0.026986
0.012020
0.026142
0.039185
0.021635
0.027812
0.022826
0.037442
0.015853
0.016000
0.033818
0.017235
0.020241
0.031313
0.037723
0.026135
0.025392
0.023136
0.025097
0.018329
0.025569
0.029950
0.025584
0.025815
0.022311
0.024026
0.024693
0.025817
0.032552
0.038549
0.019888
0.027098
0.032060
0.032617
0.032680
0.036404
0.022074
0.026519
0.030015
0.036172
0.032464
0.030960
0.028475
0.033065
0.031211
0.038338
0.034215
0.027676
0.014468
0.015926
0.012561
0.020580
0.014737
0.014324
0.024943
0.028123
0.023765
0.024540
0.026235
0.026987
0.012902
0.009891
0.025596
0.007710
