# vtk DataFile Version 2.0
Unstructured Grid Example
ASCII
DATASET UNSTRUCTURED_GRID
POINTS 1108 float
1.002766 0.001059 -0.026113 
-1.002767 -0.001027 0.025867 
0.001356 1.015150 -0.003988 
-0.001171 -1.015492 0.004145 
-0.025696 -0.004016 0.981902 
0.025586 0.004163 -0.982048 
1.202641 0.000736 -0.017304 
-1.202599 -0.000469 0.017318 
0.000961 1.214674 -0.002705 
-0.000884 -1.214459 0.002935 
-0.017163 -0.002710 1.182967 
0.017253 0.002811 -1.182875 
0.983904 0.198212 -0.026262 
0.927575 0.388314 -0.025567 
0.835918 0.563866 -0.023695 
0.712001 0.717770 -0.021296 
0.560289 0.844385 -0.017294 
0.386460 0.938463 -0.013373 
0.197648 0.996175 -0.008933 
-0.195004 0.994783 0.000677 
-0.383992 0.936432 0.005816 
-0.557434 0.842047 0.011067 
-0.709552 0.715228 0.015633 
-0.834471 0.561258 0.019047 
-0.926286 0.385863 0.022518 
-0.983348 0.196189 0.024567 
-0.983919 -0.198001 0.026044 
-0.927236 -0.388110 0.025354 
-0.835256 -0.563568 0.023522 
-0.711378 -0.717593 0.021110 
-0.559963 -0.844397 0.017520 
-0.386302 -0.938491 0.013731 
-0.197630 -0.996080 0.008872 
0.195372 -0.995205 -0.000692 
0.384057 -0.936958 -0.005747 
0.557549 -0.842242 -0.011343 
0.709505 -0.715268 -0.015567 
0.834432 -0.561325 -0.019072 
0.926186 -0.385811 -0.022573 
0.983362 -0.196108 -0.024634 
-0.025334 -0.200090 0.964946 
-0.024200 -0.389107 0.911391 
-0.021840 -0.564236 0.823117 
-0.018902 -0.718224 0.702846 
-0.015372 -0.845315 0.554145 
-0.010715 -0.939321 0.383895 
-0.005968 -0.997004 0.198023 
0.003871 -0.993975 -0.189969 
0.008735 -0.933673 -0.375463 
0.013412 -0.837510 -0.545446 
0.017300 -0.709573 -0.693907 
0.020506 -0.555264 -0.815301 
0.023239 -0.380581 -0.905505 
0.024768 -0.191792 -0.961857 
0.025300 0.200023 -0.965003 
0.023927 0.389079 -0.911863 
0.022030 0.564295 -0.823180 
0.019015 0.718171 -0.702630 
0.015326 0.845190 -0.554007 
0.010893 0.939289 -0.383736 
0.006194 0.996985 -0.197938 
-0.003656 0.993987 0.190045 
-0.008834 0.933817 0.375117 
-0.013421 0.837436 0.545531 
-0.017441 0.709682 0.694028 
-0.020692 0.555336 0.815149 
-0.023318 0.380722 0.905800 
-0.024936 0.191941 0.962047 
0.973359 0.000253 0.166729 
0.906961 -0.000636 0.350396 
0.806947 -0.001235 0.519909 
0.678757 -0.001878 0.669006 
0.526024 -0.002833 0.793573 
0.353848 -0.003300 0.889804 
0.168078 -0.003640 0.953889 
-0.220462 -0.004002 0.972960 
-0.408894 -0.004385 0.926449 
-0.582473 -0.003835 0.842895 
-0.734302 -0.003580 0.723927 
-0.857019 -0.003357 0.576481 
-0.944020 -0.002341 0.405591 
-0.993318 -0.001752 0.219362 
-0.973325 -0.000200 -0.166929 
-0.907172 0.000618 -0.350632 
-0.807411 0.001159 -0.520015 
-0.679075 0.001867 -0.669141 
-0.526243 0.002616 -0.793178 
-0.353833 0.003226 -0.889751 
-0.168142 0.003711 -0.953920 
0.220244 0.004239 -0.972958 
0.408783 0.004382 -0.926362 
0.582200 0.003988 -0.842755 
0.734105 0.003656 -0.723946 
0.857044 0.003318 -0.576436 
0.944045 0.002520 -0.405734 
0.993070 0.001874 -0.219416 
1.188194 0.189754 -0.017361 
1.144906 0.374327 -0.017280 
1.073852 0.549859 -0.016448 
0.975854 0.712394 -0.015711 
0.853765 0.857955 -0.014334 
0.710632 0.982007 -0.011896 
0.549437 1.082265 -0.010106 
0.374393 1.155691 -0.007709 
0.189909 1.200051 -0.005657 
-0.188055 1.199110 0.000235 
-0.372578 1.153626 0.003327 
-0.547357 1.080200 0.005263 
-0.708730 0.979561 0.007493 
-0.851567 0.855597 0.009879 
-0.973507 0.710785 0.012676 
-1.072245 0.548130 0.014033 
-1.143577 0.372973 0.015343 
-1.187521 0.188564 0.016471 
-1.188090 -0.189766 0.017441 
-1.144574 -0.374199 0.017241 
-1.073324 -0.549686 0.016483 
-0.975337 -0.712074 0.015589 
-0.853744 -0.857724 0.013898 
-0.710610 -0.981788 0.011840 
-0.549298 -1.082288 0.009989 
-0.374310 -1.155616 0.007751 
-0.189890 -1.200124 0.005680 
0.188270 -1.199212 -0.000180 
0.372765 -1.154057 -0.003236 
0.547643 -1.080399 -0.005345 
0.708903 -0.979723 -0.007656 
0.851691 -0.855491 -0.009995 
0.973549 -0.710715 -0.012922 
1.072242 -0.548067 -0.014112 
1.143551 -0.372899 -0.015357 
1.187542 -0.188422 -0.016548 
0.002244 -1.198064 -0.184550 
0.004563 -1.151319 -0.367217 
0.007199 -1.075757 -0.539593 
0.009115 -0.973881 -0.697591 
0.011639 -0.848600 -0.838304 
0.013897 -0.702965 -0.957506 
0.014882 -0.541529 -1.053084 
0.015919 -0.367358 -1.123390 
0.016811 -0.184647 -1.167147 
0.016978 0.190355 -1.169859 
0.016526 0.373537 -1.129059 
0.015691 0.548896 -1.060322 
0.014473 0.711482 -0.965621 
0.012740 0.857025 -0.846008 
0.010288 0.981598 -0.705936 
0.008399 1.082609 -0.546688 
0.006513 1.156630 -0.373061 
0.003469 1.200714 -0.190500 
-0.002365 1.197839 0.184423 
-0.004524 1.151510 0.367019 
-0.006665 1.075386 0.540207 
-0.009070 0.973786 0.697589 
-0.011640 0.848708 0.838254 
-0.014146 0.702989 0.957838 
-0.015005 0.541584 1.053169 
-0.016050 0.367383 1.123623 
-0.016884 0.184561 1.167218 
-0.017153 -0.190207 1.169893 
-0.016528 -0.373680 1.128756 
-0.015672 -0.548723 1.060270 
-0.014528 -0.711372 0.965896 
-0.012663 -0.856984 0.846213 
-0.010228 -0.981682 0.706100 
-0.008362 -1.082720 0.546793 
-0.006464 -1.156659 0.373206 
-0.003398 -1.200779 0.190782 
-1.196622 -0.001130 0.204240 
-1.159660 -0.001246 0.388546 
-1.092499 -0.001897 0.563852 
-0.995737 -0.001876 0.725020 
-0.872561 -0.002666 0.866198 
-0.728184 -0.002672 0.984867 
-0.564862 -0.002724 1.078373 
-0.388497 -0.002640 1.142268 
-0.204160 -0.002818 1.177289 
0.168591 -0.002431 1.159692 
0.348797 -0.002404 1.109235 
0.519088 -0.002105 1.032902 
0.676988 -0.001687 0.933865 
0.820302 -0.001402 0.814033 
0.944166 -0.001158 0.674034 
1.046507 -0.000491 0.517681 
1.125890 -0.000020 0.348207 
1.178846 0.000313 0.168923 
1.196547 0.001216 -0.204509 
1.159805 0.001592 -0.388459 
1.092634 0.001928 -0.563855 
0.995562 0.002026 -0.724932 
0.872613 0.002600 -0.866075 
0.728235 0.002509 -0.984787 
0.564801 0.002685 -1.078226 
0.388258 0.002738 -1.142322 
0.204165 0.002750 -1.177144 
-0.168745 0.002384 -1.159851 
-0.349053 0.002350 -1.109232 
-0.519075 0.002212 -1.032672 
-0.677098 0.002097 -0.934336 
-0.820452 0.001387 -0.814233 
-0.944464 0.001102 -0.674271 
-1.046903 0.000420 -0.517907 
-1.126064 -0.000017 -0.348296 
-1.178841 -0.000273 -0.168977 
0.837851 -0.401865 -0.433014 
0.430817 -0.802959 -0.446866 
0.417524 -0.378656 -0.839845 
0.910006 -0.301623 -0.357407 
0.305748 -0.906037 -0.335969 
0.706081 -0.339034 -0.663660 
0.576209 -0.637916 -0.548249 
0.877258 -0.486441 -0.128130 
0.199928 -0.622530 -0.756279 
0.639196 -0.170954 -0.783303 
0.895813 -0.156794 -0.481532 
0.219485 -0.861258 -0.477599 
0.969192 -0.138862 -0.289037 
0.826400 -0.296007 -0.536086 
0.698294 -0.652540 -0.357189 
0.471707 -0.874589 -0.208735 
0.637654 -0.767572 -0.187351 
0.548871 -0.481540 -0.710551 
0.822926 -0.142231 -0.605292 
0.570846 -0.763460 -0.357298 
0.994040 -0.123074 -0.137748 
0.780772 -0.625018 -0.168538 
0.159509 -0.960931 -0.275134 
0.948338 -0.309674 -0.181132 
0.756600 -0.476258 -0.502229 
0.273255 -0.964350 -0.153889 
0.574770 -0.302041 -0.788319 
0.351301 -0.711274 -0.625815 
0.849328 -0.474710 -0.307975 
0.523963 -0.180465 -0.854942 
0.163836 -0.763492 -0.628701 
0.216848 -0.481510 -0.846840 
0.200479 -0.316687 -0.921760 
0.371826 -0.560011 -0.753251 
0.660263 -0.487015 -0.612204 
0.127010 -0.998360 -0.123363 
0.467686 -0.607258 -0.665634 
0.354113 -0.214217 -0.917680 
0.229801 -0.129873 -0.961856 
0.525002 0.597812 -0.652541 
0.520628 0.801892 -0.374478 
0.831355 0.383391 -0.477084 
0.425005 0.480758 -0.796150 
0.363065 0.903947 -0.313967 
0.316441 0.321591 -0.905184 
0.195520 0.169248 -0.964083 
0.787840 0.224490 -0.630863 
0.694986 0.551915 -0.526764 
0.513056 0.863229 -0.186443 
0.629136 0.183655 -0.793149 
0.198170 0.895083 -0.447229 
0.192352 0.484767 -0.861479 
0.576055 0.700879 -0.487812 
0.161086 0.972014 -0.262544 
0.416646 0.145765 -0.914360 
0.148221 0.330009 -0.930745 
0.642741 0.718869 -0.354578 
0.136511 0.636959 -0.770178 
0.186826 0.769881 -0.636361 
0.323740 0.638861 -0.726169 
0.868955 0.496297 -0.194609 
0.635279 0.405710 -0.704445 
0.394947 0.783953 -0.530803 
0.779673 0.567425 -0.357999 
0.130648 1.002452 -0.117525 
0.296888 0.963527 -0.150535 
0.718177 0.703797 -0.169144 
0.963580 0.151896 -0.309936 
0.499818 0.315204 -0.836652 
0.873558 0.420616 -0.339324 
0.899915 0.177170 -0.472438 
0.951901 0.299395 -0.201680 
0.915319 0.291931 -0.364629 
0.992629 0.132099 -0.156957 
0.750241 0.396089 -0.590481 
0.436886 0.455957 0.725799 
0.443546 0.810274 0.362323 
0.817208 0.412227 0.341499 
0.306280 0.309602 0.857163 
0.298845 0.914536 0.281470 
0.896448 0.339617 0.226181 
0.954933 0.169676 0.180814 
0.534682 0.632208 0.515894 
0.086400 0.478731 0.848165 
0.726793 0.164282 0.599662 
0.413867 0.156320 0.846352 
0.427235 0.895006 0.166613 
0.860843 0.477061 0.141152 
0.234509 0.137747 0.924109 
0.253416 0.969628 0.130882 
0.935683 0.325498 0.096095 
0.584451 0.156268 0.734750 
0.488182 0.287528 0.769055 
0.298529 0.627439 0.683825 
0.774948 0.628086 0.090326 
0.666820 0.731039 0.147342 
0.567041 0.492118 0.606548 
0.177199 0.755016 0.609683 
0.750712 0.580956 0.271122 
0.618781 0.688344 0.341153 
0.374220 0.720528 0.550745 
0.548569 0.811443 0.202361 
0.109779 0.999927 0.116690 
0.086333 0.119745 0.961948 
0.445764 0.592904 0.625972 
0.131188 0.612160 0.754582 
0.685170 0.506024 0.467420 
0.617522 0.346980 0.645286 
0.132753 0.306063 0.911993 
0.160949 0.959996 0.258166 
0.762134 0.318088 0.497292 
0.816883 0.139077 0.488589 
0.205933 0.870991 0.437922 
0.869618 0.233154 0.366678 
0.233168 0.473472 0.813363 
0.502408 -0.796235 0.327320 
0.303851 -0.375821 0.841406 
0.318201 -0.885088 0.350702 
0.125996 -0.471055 0.855296 
0.484432 -0.160554 0.808331 
0.422658 -0.896045 0.178451 
0.586913 -0.549434 0.551072 
0.239626 -0.178020 0.919820 
0.223464 -0.971171 0.176140 
0.907757 -0.376736 0.138310 
0.749503 -0.402511 0.467805 
0.734847 -0.666004 0.122564 
0.848390 -0.189752 0.425990 
0.945633 -0.182615 0.206195 
0.480051 -0.324198 0.767850 
0.552105 -0.681629 0.450446 
0.607432 -0.783196 0.147740 
0.697924 -0.642720 0.283027 
[...]
POINT_DATA 1108
SCALARS u float 1
LOOKUP_TABLE default
0.026280
0.026035
0.015725
0.016080
0.031685
0.031532
0.017520
0.017518
0.014952
0.014781
0.024332
0.024471
0.026630
0.026440
0.025496
0.024314
0.022095
0.020144
0.017978
0.014015
0.013896
0.015422
0.017786
0.020104
0.022868
0.024725
0.026393
0.026145
0.025132
0.023955
0.022212
0.020375
0.017863
0.014439
0.014352
0.015768
0.017740
0.020140
0.022905
0.024789
0.030293
0.027980
0.024937
0.022339
0.020737
0.018833
0.017529
0.014669
0.014978
0.017857
0.021900
0.026115
0.029700
0.031347
0.030224
0.027528
0.025103
0.022450
0.020629
0.018900
0.017576
0.014598
0.015298
0.017791
0.021952
0.026355
0.029571
0.031350
0.029319
0.036457
0.043297
0.047528
0.048137
0.044761
0.038293
0.026850
0.026699
0.029479
0.032177
0.033186
0.030593
0.027372
0.029134
0.036150
0.042946
0.047230
0.048303
0.044805
0.038233
0.026682
0.026581
0.029196
0.032029
0.033173
0.030730
0.027316
0.017730
0.018004
0.017827
0.017941
0.017938
0.017165
0.017153
0.016740
0.016017
0.013890
0.012919
0.012455
0.012001
0.012522
0.014054
0.014742
0.015664
0.016651
0.017792
0.017877
0.017681
0.017571
0.017462
0.016977
0.017065
0.016677
0.016091
0.013997
0.013335
0.012727
0.012270
0.012585
0.014258
0.014802
0.015664
0.016724
0.013413
0.011611
0.011032
0.012351
0.015492
0.019392
0.022183
0.024187
0.024878
0.023050
0.020725
0.018494
0.016558
0.015519
0.014912
0.015929
0.016835
0.016113
0.013250
0.011825
0.010178
0.012295
0.015527
0.019344
0.022196
0.024099
0.024886
0.023141
0.020926
0.018466
0.016482
0.015402
0.014939
0.016016
0.016863
0.016211
0.020100
0.025574
0.030158
0.031805
0.029948
0.026948
0.022235
0.017901
0.018471
0.031998
0.038947
0.044531
0.046610
0.044594
0.041133
0.035361
0.027347
0.019854
0.020285
0.025637
0.030266
0.031623
0.029913
0.026933
0.022113
0.017682
0.018528
0.031775
0.038803
0.044732
0.046187
0.044343
0.040759
0.034933
0.027175
0.019804
0.026789
0.016948
0.023450
0.026868
0.014863
0.027987
0.021539
0.021602
0.020756
0.028843
0.030446
0.015800
0.027582
0.029249
0.021752
0.015876
0.018196
0.023509
0.031740
0.018771
0.025534
0.020262
0.014362
0.024332
0.026220
0.014085
0.026470
0.018292
0.024136
0.026536
0.018244
0.023082
0.025318
0.020618
0.025320
0.014433
0.020619
0.024766
0.026101
0.030581
0.027650
0.033281
0.028545
0.024374
0.026696
0.026969
0.033976
0.032299
0.024483
0.031569
0.022864
0.025310
0.030514
0.020610
0.027549
0.026618
0.029108
0.024026
0.023743
0.026704
0.028130
0.032827
0.027381
0.031048
0.018463
0.020956
0.026536
0.029745
0.029919
0.030910
0.033114
0.028153
0.031372
0.027113
0.033682
0.041163
0.023181
0.033915
0.041825
0.017988
0.030764
0.030429
0.032561
0.031253
0.045399
0.046189
0.019400
0.027371
0.041169
0.017212
0.027706
0.048451
0.045902
0.032250
0.024833
0.023707
0.039233
0.024828
0.028442
0.027584
0.028408
0.021685
0.015422
0.035639
0.035360
0.028801
0.035850
0.044082
0.036089
0.015839
0.040844
0.042229
0.019333
0.036687
0.036173
0.019094
0.036712
0.016769
0.029541
0.045504
0.015144
0.032563
0.039082
0.015020
0.025126
0.035588
0.019728
0.038027
0.029764
0.041479
0.024910
0.017494
0.023673
0.034570
0.033111
0.020657
0.017519
0.021408
0.022430
0.027890
0.043985
0.018349
0.034083
0.029730
0.027450
0.040100
0.025462
0.024978
0.030422
0.046018
0.042391
0.031299
0.015448
0.030791
0.027833
0.032895
0.028923
0.024662
0.026661
0.026843
0.033796
0.032486
0.024745
0.031982
0.022874
0.025469
0.030047
0.020414
0.027663
0.026609
0.029084
0.023895
0.023717
0.026740
0.027597
0.032986
0.027439
0.030849
0.018454
0.021083
0.026309
0.029496
0.029914
0.030968
0.032969
0.027778
0.031157
0.027023
0.033896
0.040403
0.022921
0.033310
0.041872
0.018151
0.030538
0.030267
0.032651
0.031120
0.045355
0.046136
0.019501
0.027121
0.041008
0.017121
0.027466
0.047938
0.045802
0.031792
0.024453
0.023794
0.039057
0.024193
0.028300
0.027540
0.028298
0.021788
0.015589
0.035666
0.034583
0.028745
0.035625
0.043688
0.036205
0.016121
0.040467
0.041789
0.019455
0.036637
0.036156
0.018943
0.036626
0.016713
0.029587
0.045768
0.014958
0.032458
0.039076
0.014817
0.025085
0.035357
0.019682
0.037830
0.029583
0.041289
0.024982
0.017192
0.023529
0.034351
0.032911
0.020536
0.017560
0.021442
0.022455
0.027829
0.043850
0.018376
0.034002
0.029502
0.027112
0.039914
0.025218
0.024924
0.030239
0.045919
0.042483
0.031011
0.015252
0.026800
0.016942
0.023622
0.026990
0.014936
0.027996
0.021517
0.021640
0.020790
0.028983
0.030503
0.015311
0.027412
0.029237
0.021678
0.015646
0.017704
0.023554
0.031775
0.018640
0.025425
0.020179
0.014367
0.024381
0.026208
0.013868
0.026610
0.018533
0.024093
0.026725
0.018354
0.023215
0.025421
0.020812
0.025297
0.014255
0.020814
0.024868
0.026168
0.019486
0.029645
0.031267
0.022246
0.011527
0.021979
0.012297
0.033183
0.017682
0.013791
0.029954
0.040383
0.016343
0.021818
0.037150
0.013243
0.044197
0.020685
0.013259
0.019964
0.015312
0.011029
0.028862
0.014319
0.026073
0.025223
0.017389
0.012236
0.021740
0.014658
0.033032
0.035642
0.024042
0.023376
0.030646
0.013061
0.027496
0.042674
0.014199
0.040619
0.026484
0.044994
0.016466
0.034911
0.013453
0.028987
0.011971
0.014734
0.011381
0.019259
0.011157
0.026951
0.018678
0.014843
0.017914
0.017626
0.034130
0.038471
0.012536
0.040617
0.024946
0.036395
0.028808
0.029113
0.021401
0.022210
0.026636
0.020540
0.024622
0.018311
0.018155
0.019864
0.018316
0.032369
0.021599
0.019922
0.019513
0.032394
0.026075
0.017209
0.027699
0.025920
0.021339
0.022057
0.019413
0.028318
0.017752
0.030173
0.020162
0.021510
0.018164
0.022660
0.025870
0.024665
0.030165
0.031671
0.028154
0.030488
0.025539
0.017506
0.031872
0.020902
0.028937
0.017462
0.030277
0.023418
0.032698
0.022979
0.030195
0.024723
0.021538
0.023564
0.025949
0.028181
0.031452
0.018875
0.016320
0.026174
0.032857
0.023677
0.020798
0.020604
0.018345
0.017503
0.039161
0.025294
0.013417
0.039117
0.027718
0.035920
0.023556
0.012418
0.034980
0.022455
0.013607
0.017992
0.024630
0.018219
0.017880
0.027003
0.014769
0.013472
0.037342
0.043855
0.046035
0.038785
0.018837
0.029786
0.012039
0.032731
0.041386
0.030098
0.018835
0.030293
0.017974
0.023907
0.021219
0.027285
0.030023
0.029572
0.038996
0.016251
0.021111
0.015746
0.015987
0.017096
0.015560
0.031838
0.021993
0.034883
0.023276
0.042919
0.045949
0.043015
0.033926
0.032023
0.037053
0.018451
0.029298
0.031900
0.025278
0.013674
0.043748
0.014416
0.011292
0.014537
0.024679
0.018651
0.014001
0.016922
0.024228
0.016623
0.021722
0.017714
0.021360
0.013677
0.018381
0.013204
0.016577
0.015770
0.017529
0.011066
0.014472
0.027787
0.022404
0.023585
0.029788
0.018205
0.017667
0.013928
0.021555
0.018088
0.026382
0.020006
0.018056
0.015779
0.012045
0.013270
0.015852
0.018653
0.021630
0.018376
0.024798
0.017803
0.014638
0.014860
0.013112
0.015576
0.012130
0.014709
0.014815
0.020895
0.015508
0.021789
0.027078
0.029886
0.019920
0.027270
0.020162
0.024487
0.018011
0.020707
0.021673
0.016534
0.013273
0.027734
0.013096
0.013465
0.022224
0.034740
0.038319
0.024300
0.012361
0.023476
0.012720
0.018668
0.014667
0.021648
0.042808
0.044801
0.027639
0.014414
0.037986
0.026368
0.045914
0.016363
0.021534
0.017873
0.014655
0.011646
0.029697
0.042621
0.029271
0.019056
0.013903
0.012968
0.022356
0.037849
0.031914
0.036957
0.040908
0.030293
0.028673
0.035170
0.016632
0.029628
0.016423
0.043417
0.042870
0.032510
0.046046
0.021006
0.036925
0.017749
0.030778
0.012683
0.016291
0.016124
0.021759
0.013670
0.023282
0.029694
0.014526
0.018405
0.037008
0.023048
0.037353
0.015457
0.032358
0.028962
0.024628
0.018554
0.013915
0.016763
0.024189
0.016554
0.021732
0.013610
0.017666
0.021458
0.013753
0.013469
0.018402
0.012759
0.015773
0.017656
0.010980
0.014587
0.027776
0.022245
0.023398
0.029751
0.018174
0.017665
0.012107
0.021536
0.017927
0.026457
0.019997
0.018072
0.016284
0.015396
0.019031
0.021716
0.018141
0.024789
0.017585
0.014693
0.015210
0.012848
0.017331
0.012010
0.014948
0.014620
0.020907
0.015368
0.021867
0.026972
0.029782
0.019703
0.027238
0.020028
0.024501
0.018081
0.020698
0.016229
0.021785
0.015245
0.027627
0.012102
0.013737
0.013532
0.019447
0.029643
0.033783
0.022383
0.011594
0.022091
0.012446
0.017747
0.013994
0.040609
0.016356
0.042040
0.021766
0.037370
0.013235
0.043823
0.020659
0.013375
0.020111
0.015375
0.011164
0.029118
0.014342
0.040082
0.025191
0.017419
0.012394
0.021842
0.014786
0.032610
0.026603
0.035883
0.036826
0.024285
0.023381
0.030951
0.013026
0.027750
0.042878
0.014154
0.038962
0.026500
0.045048
0.016371
0.035153
0.013423
0.029264
0.011935
0.014887
0.011555
0.019327
0.011248
0.027148
0.018591
0.014979
0.018011
0.034599
0.017673
0.034209
0.012633
0.029728
0.027752
0.026024
0.030698
0.029493
0.022277
0.019129
0.020525
0.017881
0.025474
0.018071
0.018938
0.020981
0.025635
0.031795
0.032488
0.021683
0.026573
0.020745
0.032055
0.022047
0.023878
0.019237
0.017456
0.020170
0.019716
0.029389
0.030026
0.019498
0.017528
0.018258
0.017691
0.030963
0.029659
0.032775
0.031443
0.029421
0.024518
0.025669
0.020601
0.029800
0.026176
0.032047
0.020810
0.032461
0.025349
0.027954
0.023692
0.022392
0.021202
0.017705
0.022206
0.018929
0.028149
0.028608
0.020038
0.016399
0.030124
0.027571
0.026045
0.017414
0.021220
0.026005
0.019713
0.022935
0.023504
0.036636
0.025835
0.028212
0.032258
0.031554
0.011698
0.006072
0.023415
0.021879
0.026557
0.023532
0.038630
0.022420
0.024141
0.025938
0.039303
0.029915
0.005418
0.015148
0.018765
0.018039
0.022702
0.036455
0.030979
0.034705
0.030146
0.032270
0.026342
0.039067
0.037620
0.033950
0.032403
0.021043
0.039862
0.039113
0.015151
0.030905
0.013766
0.029938
0.044875
0.024777
0.031851
0.026141
0.042879
0.018155
0.018323
0.038729
0.019737
0.023181
0.035860
0.043201
0.029931
0.029080
0.026496
0.028742
0.020990
0.029282
0.034299
0.029299
0.029564
0.025551
0.027515
0.028278
0.029566
0.037279
0.044147
0.022776
0.031033
0.036715
0.037353
0.037426
0.041691
0.025280
0.030370
0.034373
0.041425
0.037178
0.035456
0.032610
0.037867
0.035744
0.043905
0.039183
0.031695
0.016569
0.018238
0.014385
0.023569
0.016877
0.016404
0.028565
0.032207
0.027217
0.028103
0.030045
0.030906
0.014775
0.011327
0.029314
0.008830
