# vtk DataFile Version 2.0
Unstructured Grid Example
ASCII
DATASET UNSTRUCTURED_GRID
POINTS 1108 float
0.986144 -0.017958 0.002947 
-0.986361 0.017705 -0.002771 
-0.017884 1.018572 -0.004893 
0.017876 -1.018696 0.004942 
0.002929 -0.004764 0.994541 
-0.002991 0.004953 -0.995198 
1.186993 -0.011865 0.001955 
-1.187005 0.011986 -0.001836 
-0.011847 1.217554 -0.003053 
0.012095 -1.217715 0.003223 
0.001892 -0.003175 1.194880 
-0.001864 0.003075 -1.195224 
0.960933 0.178438 0.001820 
0.899859 0.367235 0.000882 
0.805764 0.542288 -0.000045 
0.682149 0.697210 -0.001298 
0.532723 0.827325 -0.002426 
0.362079 0.927068 -0.003363 
0.176411 0.991686 -0.004143 
-0.212697 1.005105 -0.005300 
-0.400248 0.952389 -0.005611 
-0.571574 0.861396 -0.005594 
-0.720115 0.735448 -0.005376 
-0.839811 0.581068 -0.005049 
-0.925296 0.404997 -0.004478 
-0.974544 0.214666 -0.003711 
-0.961230 -0.178585 -0.001719 
-0.900052 -0.367332 -0.000964 
-0.806262 -0.542452 0.000153 
-0.682604 -0.697163 0.001373 
-0.532846 -0.827072 0.002396 
-0.362001 -0.926725 0.003316 
-0.176251 -0.991743 0.004253 
0.212854 -1.005210 0.005429 
0.400365 -0.952280 0.005694 
0.571696 -0.861443 0.005727 
0.720381 -0.735460 0.005472 
0.839823 -0.581092 0.005105 
0.925494 -0.405199 0.004608 
0.974622 -0.214902 0.003883 
0.006494 -0.202111 0.977406 
0.009620 -0.392284 0.923327 
0.012503 -0.568350 0.833823 
0.014766 -0.722853 0.711687 
0.016528 -0.850000 0.561312 
0.017591 -0.943904 0.388834 
0.018321 -1.000468 0.200571 
0.016943 -0.996810 -0.190557 
0.015391 -0.936372 -0.378091 
0.013115 -0.840001 -0.550569 
0.010371 -0.712284 -0.701345 
0.007450 -0.557678 -0.824880 
0.004006 -0.382099 -0.917044 
0.000399 -0.192064 -0.974496 
-0.006274 0.201872 -0.977831 
-0.009507 0.392204 -0.923892 
-0.012421 0.568207 -0.833780 
-0.014601 0.722673 -0.711514 
-0.016334 0.849844 -0.561214 
-0.017430 0.943752 -0.388732 
-0.018152 1.000460 -0.200511 
-0.016829 0.996836 0.190766 
-0.015301 0.936464 0.378406 
-0.013226 0.840432 0.550572 
-0.010439 0.712490 0.701402 
-0.007697 0.557769 0.824949 
-0.004196 0.382308 0.916773 
-0.000495 0.192365 0.974147 
0.968566 -0.018404 0.196759 
0.913782 -0.018360 0.383021 
0.823480 -0.017327 0.554760 
0.701516 -0.015958 0.705526 
0.552209 -0.014035 0.829099 
0.381355 -0.011107 0.920570 
0.195821 -0.007812 0.976448 
-0.190157 -0.000974 0.974151 
-0.375072 0.002228 0.916232 
-0.545989 0.006149 0.823505 
-0.695806 0.009041 0.699336 
-0.818519 0.012027 0.548481 
-0.909792 0.014431 0.376904 
-0.966448 0.016326 0.190890 
-0.968613 0.018233 -0.196573 
-0.913718 0.018326 -0.382834 
-0.823360 0.017175 -0.554580 
-0.701384 0.015876 -0.705441 
-0.551906 0.013755 -0.829287 
-0.381452 0.010750 -0.920960 
-0.196084 0.007820 -0.977101 
0.189895 0.001390 -0.974425 
0.375351 -0.002265 -0.916526 
0.546030 -0.006002 -0.823686 
0.695590 -0.009110 -0.699285 
0.818211 -0.012082 -0.548404 
0.909705 -0.014704 -0.376788 
0.966448 -0.016675 -0.190610 
1.166422 0.175620 0.001432 
1.118544 0.357833 0.000791 
1.044783 0.530912 0.000168 
0.947213 0.691754 -0.000428 
0.827116 0.836903 -0.000738 
0.686671 0.962943 -0.001503 
0.529069 1.066678 -0.001959 
0.357650 1.145382 -0.002380 
0.175878 1.196331 -0.002871 
-0.200552 1.208461 -0.003334 
-0.385061 1.168460 -0.003758 
-0.560934 1.098187 -0.003736 
-0.721720 0.998355 -0.003961 
-0.863113 0.873018 -0.003562 
-0.982419 0.726741 -0.003311 
-1.076073 0.562569 -0.003165 
-1.141689 0.385402 -0.002823 
-1.178623 0.200330 -0.002469 
-1.166762 -0.175804 -0.001391 
-1.118796 -0.358205 -0.000603 
-1.045054 -0.531018 -0.000088 
-0.947559 -0.692164 0.000452 
-0.826922 -0.837291 0.000791 
-0.686482 -0.962999 0.001613 
-0.528956 -1.066461 0.001988 
-0.357609 -1.145195 0.002470 
-0.175869 -1.196410 0.002770 
0.200584 -1.208431 0.003398 
0.385234 -1.168430 0.003744 
0.560997 -1.098213 0.003831 
0.721804 -0.998397 0.003995 
0.863252 -0.873170 0.003632 
0.982607 -0.726886 0.003364 
1.076207 -0.562741 0.003222 
1.141874 -0.385509 0.002875 
1.178698 -0.200314 0.002526 
0.011487 -1.200770 -0.185601 
0.010713 -1.153838 -0.369003 
0.009714 -1.078511 -0.542669 
0.008712 -0.976940 -0.702512 
0.006970 -0.851935 -0.844407 
0.005112 -0.706621 -0.965616 
0.003533 -0.544328 -1.063091 
0.001776 -0.369376 -1.134679 
0.000181 -0.185797 -1.178987 
-0.003994 0.192328 -1.182453 
-0.005543 0.376339 -1.140816 
-0.007081 0.552743 -1.071289 
-0.008450 0.715701 -0.975263 
-0.009528 0.861766 -0.854233 
-0.010993 0.986694 -0.712153 
-0.011357 1.087516 -0.551517 
-0.011769 1.160441 -0.376377 
-0.012038 1.204294 -0.192186 
-0.011499 1.200727 0.185514 
-0.010733 1.153923 0.369126 
-0.009674 1.079160 0.542418 
-0.008913 0.977401 0.702559 
-0.007099 0.852153 0.844576 
-0.004806 0.706653 0.965534 
-0.003574 0.544340 1.063090 
-0.001861 0.369335 1.134475 
-0.000191 0.185634 1.178663 
0.003833 -0.191727 1.181903 
0.005536 -0.376510 1.140477 
0.007227 -0.552576 1.071260 
0.008515 -0.715732 0.975247 
0.009511 -0.861871 0.854383 
0.011080 -0.986818 0.712242 
0.011439 -1.087687 0.551602 
0.011857 -1.160536 0.376387 
0.012102 -1.204321 0.192231 
-1.171530 0.011168 0.184158 
-1.127477 0.010426 0.365871 
-1.056133 0.009076 0.538564 
-0.958777 0.008010 0.698430 
-0.838121 0.006002 0.840906 
-0.696860 0.004251 0.962415 
-0.537418 0.002607 1.060948 
-0.365861 0.000696 1.134179 
-0.184379 -0.001126 1.179118 
0.188271 -0.005031 1.181048 
0.370254 -0.006895 1.137704 
0.542974 -0.008296 1.066240 
0.702324 -0.009199 0.968205 
0.843963 -0.010671 0.846303 
0.964512 -0.011749 0.703479 
1.060716 -0.011915 0.543635 
1.131099 -0.012245 0.370194 
1.173571 -0.012247 0.188311 
1.171358 -0.011150 -0.184118 
1.127258 -0.010385 -0.365739 
1.055737 -0.009052 -0.538472 
0.958523 -0.007868 -0.698316 
0.838073 -0.006016 -0.840719 
0.697004 -0.004427 -0.962424 
0.537525 -0.002477 -1.061297 
0.365565 -0.000580 -1.134478 
0.184665 0.000713 -1.179351 
-0.188241 0.004862 -1.181562 
-0.370300 0.007244 -1.138368 
-0.543136 0.008242 -1.066420 
-0.702656 0.009627 -0.968128 
-0.843953 0.010579 -0.846189 
-0.964429 0.011606 -0.703384 
-1.060606 0.011773 -0.543542 
-1.131022 0.012127 -0.370130 
-1.173608 0.012172 -0.188268 
0.818634 -0.415004 -0.410072 
0.428993 -0.813490 -0.439329 
0.394337 -0.384658 -0.831330 
0.889368 -0.316552 -0.331893 
0.311094 -0.915533 -0.330900 
0.679994 -0.348938 -0.643474 
0.564895 -0.647993 -0.535548 
0.875045 -0.504149 -0.103884 
0.188111 -0.627091 -0.758390 
0.607138 -0.180464 -0.763799 
0.865071 -0.171319 -0.454577 
0.219727 -0.868020 -0.476564 
0.944430 -0.155698 -0.261029 
0.800123 -0.308281 -0.512020 
0.692542 -0.666537 -0.339554 
0.479753 -0.888956 -0.197639 
0.642679 -0.784513 -0.170430 
0.529118 -0.489390 -0.697602 
0.789061 -0.155022 -0.579589 
0.569499 -0.776690 -0.344742 
0.976125 -0.141076 -0.109407 
0.781245 -0.642318 -0.147507 
0.168856 -0.967509 -0.273553 
0.935968 -0.326956 -0.154537 
0.738485 -0.487841 -0.482156 
0.285700 -0.975289 -0.147794 
0.547362 -0.309890 -0.772411 
0.342819 -0.718929 -0.621284 
0.837726 -0.489729 -0.285314 
0.493521 -0.187949 -0.840024 
0.158157 -0.768232 -0.630765 
0.199180 -0.485281 -0.848627 
0.177860 -0.319875 -0.924527 
0.356214 -0.566512 -0.747457 
0.640988 -0.496372 -0.595603 
0.141854 -1.005363 -0.120746 
0.454014 -0.615210 -0.656269 
0.326722 -0.219001 -0.911828 
0.202010 -0.133164 -0.962846 
0.482955 0.581991 -0.635268 
0.483240 0.784336 -0.359468 
0.786316 0.362217 -0.449327 
0.385112 0.470044 -0.783534 
0.330879 0.892172 -0.304711 
0.279731 0.315713 -0.899633 
0.162929 0.167240 -0.966823 
0.744027 0.207026 -0.603386 
0.650794 0.531324 -0.503286 
0.480914 0.846029 -0.172307 
0.588109 0.170598 -0.771187 
0.166081 0.890816 -0.445426 
0.156452 0.482434 -0.862576 
0.534786 0.681640 -0.469130 
0.133569 0.968806 -0.260861 
0.380349 0.138111 -0.903285 
0.114188 0.329374 -0.935831 
0.602920 0.697791 -0.334550 
0.101355 0.636419 -0.773553 
0.151891 0.766864 -0.635960 
0.285744 0.630725 -0.719212 
0.831342 0.472991 -0.168719 
0.591055 0.388984 -0.681943 
0.357567 0.771241 -0.519997 
0.736819 0.544287 -0.333172 
0.107388 1.000441 -0.115737 
0.269869 0.954874 -0.143594 
0.682744 0.681644 -0.148189 
0.928218 0.132165 -0.280613 
0.459423 0.303666 -0.819872 
0.831354 0.397976 -0.312062 
0.857887 0.158104 -0.443011 
0.916855 0.277761 -0.173614 
0.874241 0.270670 -0.335707 
0.964366 0.112223 -0.128172 
0.704820 0.376555 -0.564250 
0.448725 0.451605 0.751483 
0.433339 0.801188 0.377276 
0.810822 0.397033 0.368045 
0.325844 0.306631 0.882027 
0.285442 0.908420 0.291213 
0.884697 0.322069 0.253347 
0.945540 0.151198 0.210098 
0.533290 0.623967 0.536992 
0.101177 0.479776 0.862552 
0.741114 0.151707 0.632944 
0.437207 0.149894 0.876842 
0.408610 0.883960 0.178423 
0.840870 0.457917 0.165960 
0.259113 0.134324 0.948981 
0.235304 0.963682 0.137976 
0.916414 0.306007 0.123124 
0.604984 0.146592 0.768957 
0.506317 0.281415 0.799016 
0.305089 0.625546 0.702085 
0.750396 0.608795 0.112001 
0.645198 0.714169 0.166322 
0.572604 0.484211 0.632166 
0.179825 0.754889 0.622441 
0.736817 0.565079 0.293837 
0.607661 0.675575 0.361059 
0.373510 0.715742 0.567655 
0.530205 0.797822 0.217759 
0.092732 0.999319 0.119196 
0.111939 0.118287 0.979945 
0.450474 0.587527 0.647844 
0.140544 0.612908 0.768597 
0.683915 0.494364 0.492517 
0.628866 0.337860 0.675234 
0.153148 0.305610 0.930563 
0.148187 0.957765 0.263952 
0.767363 0.305441 0.526618 
0.827547 0.124318 0.521208 
0.200241 0.868844 0.447491 
0.869760 0.217396 0.396682 
0.247497 0.472962 0.833133 
0.528576 -0.818480 0.350330 
0.336891 -0.388901 0.870401 
0.344946 -0.902493 0.367596 
0.159490 -0.479950 0.875099 
0.514443 -0.173663 0.843550 
0.444515 -0.915043 0.195134 
0.617963 -0.572048 0.584040 
0.270249 -0.186274 0.946559 
0.245866 -0.984100 0.186075 
0.915680 -0.397424 0.167368 
0.775259 -0.424597 0.502679 
0.750352 -0.688362 0.147343 
0.866375 -0.209181 0.460546 
0.950242 -0.202339 0.237414 
0.512438 -0.340488 0.802684 
0.580774 -0.704838 0.478634 
0.626682 -0.805469 0.169766 
0.720746 -0.666041 0.311045 
[...]
POINT_DATA 1108
SCALARS u float 1
LOOKUP_TABLE default
0.022873
0.022521
0.026243
0.026335
0.007815
0.007519
0.017714
0.017774
0.021397
0.021691
0.006315
0.005978
0.025975
0.028573
0.028934
0.026879
0.023346
0.021120
0.022020
0.030489
0.033952
0.034394
0.031644
0.027299
0.022802
0.020879
0.025648
0.028361
0.028417
0.026480
0.023270
0.021138
0.022206
0.030685
0.033936
0.034514
0.031781
0.027335
0.023039
0.021109
0.010143
0.013603
0.018033
0.022068
0.025486
0.027354
0.027443
0.023757
0.020347
0.016425
0.012945
0.010167
0.007944
0.006991
0.009700
0.013455
0.017869
0.021793
0.025224
0.027116
0.027313
0.023654
0.020268
0.016740
0.013057
0.010324
0.008261
0.007193
0.022154
0.020956
0.019097
0.016983
0.014626
0.011665
0.008965
0.008324
0.011018
0.013894
0.016427
0.019042
0.020979
0.022130
0.021973
0.020955
0.019019
0.016958
0.014401
0.011207
0.008701
0.008329
0.010629
0.013698
0.016638
0.019316
0.021258
0.022443
0.022407
0.026185
0.028093
0.027242
0.024376
0.020321
0.016042
0.014002
0.016487
0.026751
0.030924
0.033383
0.032281
0.028726
0.024564
0.019321
0.014859
0.014446
0.022020
0.025778
0.027804
0.026739
0.024366
0.020481
0.016192
0.014002
0.016530
0.026748
0.030976
0.033447
0.032363
0.028935
0.024786
0.019536
0.014980
0.014408
0.019443
0.016616
0.013617
0.011017
0.008785
0.007407
0.007079
0.006975
0.006532
0.006698
0.007835
0.010851
0.014087
0.017279
0.020474
0.022571
0.023173
0.022988
0.019426
0.016679
0.014080
0.011423
0.008897
0.007263
0.007099
0.007198
0.006890
0.006464
0.007978
0.010820
0.014144
0.017400
0.020647
0.022776
0.023299
0.023052
0.018028
0.017984
0.017090
0.016031
0.014228
0.012675
0.011373
0.008680
0.007054
0.006562
0.007782
0.008995
0.010029
0.011818
0.013464
0.014677
0.015929
0.016917
0.018156
0.018164
0.017415
0.016202
0.014370
0.012634
0.011021
0.008605
0.006661
0.006110
0.007821
0.008856
0.010351
0.011761
0.013394
0.014634
0.015890
0.016836
0.018874
0.023455
0.009771
0.019078
0.025913
0.014465
0.019477
0.024296
0.011790
0.013055
0.018288
0.020756
0.020336
0.016874
0.024735
0.031014
0.030701
0.013543
0.016661
0.026464
0.021086
0.027274
0.025221
0.020939
0.018711
0.029837
0.011717
0.017014
0.021771
0.011220
0.015322
0.008755
0.007155
0.012466
0.016003
0.027637
0.015465
0.008475
0.007512
0.019398
0.021581
0.025321
0.016029
0.021011
0.012440
0.009530
0.021303
0.023410
0.022249
0.016836
0.022207
0.014689
0.021879
0.023761
0.012040
0.011876
0.024048
0.018004
0.020191
0.017039
0.028878
0.019934
0.019638
0.026537
0.023907
0.021523
0.026627
0.024470
0.015533
0.027238
0.023622
0.027521
0.026152
0.024977
0.023112
0.016684
0.020722
0.026029
0.012417
0.019465
0.026510
0.024685
0.021316
0.010616
0.019390
0.012948
0.021029
0.028444
0.009700
0.020516
0.027494
0.016262
0.015522
0.015430
0.027938
0.025835
0.020587
0.014864
0.026604
0.024375
0.018195
0.023149
0.022517
0.008007
0.018504
0.012514
0.023836
0.019608
0.009406
0.020073
0.022831
0.020849
0.017546
0.023488
0.012504
0.035675
0.018027
0.034574
0.017746
0.015184
0.035973
0.028413
0.012165
0.033260
0.023870
0.024808
0.031614
0.020523
0.021355
0.019174
0.032611
0.035198
0.031975
0.009344
0.012967
0.028887
0.031071
0.032870
0.027542
0.030176
0.019137
0.032605
0.024975
0.029343
0.027000
0.022703
0.029031
0.023385
0.022826
0.017127
0.014822
0.023285
0.029776
0.019515
0.021582
0.024671
0.016039
0.021049
0.012767
0.009761
0.021162
0.023306
0.022242
0.016960
0.022383
0.014706
0.021602
0.023829
0.012292
0.011862
0.023782
0.018128
0.020375
0.017273
0.028470
0.019931
0.019844
0.026613
0.024058
0.021556
0.026163
0.024095
0.015641
0.026915
0.023150
0.027051
0.025577
0.024704
0.022867
0.016536
0.020757
0.025995
0.011993
0.019203
0.026525
0.024548
0.021143
0.010328
0.019481
0.012548
0.020964
0.027918
0.009473
0.020631
0.027307
0.016357
0.015485
0.015477
0.027566
0.025355
0.020337
0.014950
0.026700
0.024229
0.018142
0.023082
0.022584
0.007662
0.018482
0.012390
0.023534
0.019525
0.009134
0.019933
0.022769
0.020925
0.017472
0.023768
0.012584
0.035387
0.017765
0.034228
0.017265
0.015063
0.035748
0.028113
0.011725
0.033063
0.023655
0.024600
0.031433
0.020374
0.021178
0.018962
0.032300
0.035034
0.031655
0.008917
0.012656
0.028546
0.030739
0.032589
0.027362
0.029796
0.018964
0.032243
0.024541
0.029082
0.026770
0.022473
0.028723
0.023160
0.022521
0.017080
0.014564
0.023074
0.029634
0.018800
0.023774
0.009937
0.018928
0.026281
0.014433
0.019596
0.024154
0.011977
0.013080
0.018050
0.021187
0.020116
0.016760
0.024649
0.030987
0.030224
0.013666
0.016528
0.026166
0.020796
0.027263
0.025163
0.020690
0.018668
0.029775
0.011791
0.017305
0.021726
0.011377
0.015558
0.008983
0.007290
0.012737
0.016052
0.027407
0.015727
0.008606
0.007631
0.029564
0.023136
0.014446
0.016923
0.033086
0.014489
0.031130
0.010437
0.014039
0.029589
0.006861
0.014700
0.025003
0.020102
0.013064
0.026552
0.010008
0.015454
0.033596
0.025556
0.023764
0.034835
0.013568
0.027709
0.012840
0.027278
0.017129
0.033255
0.014367
0.027461
0.018312
0.018939
0.023455
0.027198
0.022457
0.032888
0.020225
0.012005
0.022136
0.014082
0.017723
0.011282
0.019256
0.016065
0.029543
0.015498
0.031162
0.029599
0.031844
0.020949
0.034535
0.024519
0.030846
0.025672
0.014990
0.028737
0.019857
0.012300
0.028187
0.008841
0.008670
0.007816
0.021224
0.015850
0.010412
0.013978
0.025877
0.015219
0.024786
0.009153
0.015745
0.024132
0.007317
0.019201
0.012585
0.010836
0.016205
0.020413
0.013461
0.010195
0.025283
0.017854
0.017916
0.027086
0.018192
0.021745
0.008666
0.018604
0.014236
0.027011
0.019063
0.021367
0.013556
0.012298
0.017134
0.019267
0.014828
0.024442
0.013805
0.015883
0.017519
0.009920
0.015989
0.013205
0.015770
0.013030
0.022554
0.014166
0.024176
0.022168
0.025686
0.015269
0.027239
0.016078
0.022129
0.020865
0.019035
0.013227
0.021110
0.012235
0.022527
0.010833
0.007606
0.008820
0.018955
0.018809
0.013648
0.010863
0.022895
0.009428
0.023228
0.012930
0.007604
0.019500
0.015278
0.024567
0.011503
0.011557
0.027435
0.009344
0.018289
0.011131
0.020495
0.015514
0.011678
0.017196
0.026351
0.008766
0.012099
0.019915
0.009505
0.019138
0.023256
0.007641
0.016895
0.014798
0.021219
0.021765
0.017401
0.023784
0.013979
0.025839
0.008744
0.012931
0.020731
0.010233
0.022826
0.012181
0.025802
0.011544
0.025372
0.016784
0.013269
0.012202
0.020917
0.022240
0.017112
0.020273
0.006519
0.014774
0.024245
0.015995
0.014238
0.014576
0.014419
0.013671
0.009954
0.016945
0.024191
0.007074
0.012610
0.006697
0.013062
0.007621
0.015084
0.010109
0.023497
0.014642
0.027028
0.006955
0.020234
0.015209
0.030359
0.010720
0.008385
0.010004
0.012891
0.006481
0.014774
0.029547
0.013019
0.008460
0.014100
0.006771
0.013696
0.020983
0.020354
0.028136
0.014987
0.022018
0.017019
0.012734
0.013271
0.006852
0.007858
0.025367
0.018724
0.026224
0.011121
0.028895
0.007603
0.018299
0.005963
0.014629
0.009941
0.012533
0.007961
0.011858
0.009381
0.013295
0.015477
0.006827
0.017734
0.009747
0.025914
0.011974
0.023712
0.023264
0.022495
0.017464
0.011389
0.024675
0.013770
0.023182
0.012946
0.023096
0.014184
0.011904
0.017287
0.014528
0.011295
0.010937
0.017519
0.008752
0.011604
0.019731
0.025279
0.027031
0.018733
0.012875
0.019185
0.010033
0.020292
0.026167
0.014177
0.015231
0.019554
0.014479
0.008795
0.007483
0.016972
0.014328
0.017316
0.019586
0.016014
0.023863
0.009650
0.014322
0.013546
0.011204
0.013018
0.008919
0.020388
0.012912
0.022265
0.012862
0.023268
0.025442
0.026283
0.016327
0.018882
0.022078
0.017140
0.020087
0.020719
0.015557
0.008907
0.022880
0.007310
0.006039
0.010001
0.016831
0.022168
0.007092
0.012695
0.006698
0.013160
0.025051
0.007506
0.015171
0.024540
0.009934
0.023605
0.014377
0.006920
0.020391
0.014587
0.030647
0.010803
0.008412
0.009941
0.012987
0.006461
0.014967
0.019426
0.012940
0.008301
0.014209
0.006637
0.013752
0.021040
0.014667
0.021160
0.016757
0.012499
0.013309
0.006783
0.007881
0.025878
0.017978
0.026128
0.010991
0.028825
0.007451
0.018305
0.005959
0.014740
0.010014
0.012653
0.007910
0.011936
0.009275
0.013256
0.015480
0.006486
0.009484
0.017539
0.026936
0.012054
0.019602
0.029925
0.028450
0.029860
0.023434
0.013246
0.017119
0.033361
0.014655
0.031338
0.014119
0.029697
0.014680
0.025259
0.013146
0.020341
0.013199
0.026844
0.010183
0.015130
0.033840
0.025847
0.023968
0.035019
0.013652
0.027965
0.009413
0.027564
0.017335
0.033425
0.014398
0.027586
0.018524
0.011229
0.007444
0.018192
0.023656
0.027512
0.022480
0.033163
0.020462
0.012140
0.022364
0.013455
0.017388
0.011321
0.019481
0.016199
0.029831
0.015687
0.031475
0.029910
0.032013
0.021179
0.034776
0.024747
0.031111
0.025784
0.015017
0.019794
0.028980
0.008763
0.028419
0.007075
0.006311
0.012719
0.021077
0.024247
0.014278
0.009616
0.015225
0.009153
0.024724
0.019259
0.007185
0.022393
0.022487
0.017495
0.020505
0.017929
0.013874
0.026764
0.019763
0.011015
0.012935
0.016664
0.010050
0.014201
0.010670
0.022163
0.016749
0.018015
0.008254
0.015817
0.008195
0.024073
0.022744
0.020875
0.018887
0.019272
0.012638
0.014202
0.022548
0.015370
0.025195
0.022579
0.025454
0.017656
0.017529
0.015073
0.014531
0.012009
0.012890
0.012934
0.014418
0.009683
0.015688
0.014892
0.006870
0.019164
0.016983
0.018495
0.026571
0.016035
0.027147
0.020689
0.025351
0.007769
0.017407
0.024081
0.014406
0.018060
0.007182
0.009282
0.024635
0.010212
0.006570
0.018578
0.024273
0.018812
0.019080
0.022751
0.023772
0.017567
0.021451
0.014147
0.012068
0.032569
0.027116
0.026225
0.024207
0.024114
0.025849
0.023907
0.024741
0.025000
0.021280
0.009161
0.013633
0.019335
0.031099
0.036369
0.021516
0.025683
0.031359
0.025459
0.024067
0.019931
0.015452
0.014841
0.029103
0.021583
0.015606
0.023616
0.023895
0.009641
0.025056
0.024567
0.018113
0.022570
0.007170
0.010066
0.018026
0.013971
0.030170
0.026013
0.022643
0.025832
0.010849
0.010354
0.008082
0.018340
0.028448
0.008551
0.013166
0.023340
0.026221
0.025370
0.023595
0.008842
0.015015
0.021226
0.011488
0.009510
0.021184
0.022095
0.013149
0.017111
0.021367
0.024387
0.022584
0.026765
0.027951
0.034722
0.030132
0.031887
0.019385
0.027336
0.033330
0.023221
0.015096
0.018538
0.012767
0.008525
0.009769
0.028016
0.013609
0.023409
0.009237
