# vtk DataFile Version 2.0
Unstructured Grid Example
ASCII
DATASET UNSTRUCTURED_GRID
POINTS 1108 float
0.990534 -0.012268 0.002013 
-0.990683 0.012095 -0.001893 
-0.012217 1.012687 -0.003343 
0.012212 -1.012772 0.003376 
0.002001 -0.003255 0.996271 
-0.002043 0.003384 -0.996720 
1.191114 -0.008105 0.001335 
-1.191123 0.008188 -0.001254 
-0.008093 1.211992 -0.002086 
0.008263 -1.212102 0.002202 
0.001293 -0.002169 1.196502 
-0.001273 0.002101 -1.196738 
0.967224 0.183715 0.001243 
0.907470 0.372130 0.000603 
0.813909 0.546497 -0.000031 
0.690058 0.700346 -0.000887 
0.539963 0.828639 -0.001657 
0.368608 0.926057 -0.002297 
0.182330 0.988232 -0.002830 
-0.207118 0.997399 -0.003620 
-0.394682 0.943355 -0.003833 
-0.566503 0.851913 -0.003822 
-0.715993 0.726468 -0.003673 
-0.837168 0.572989 -0.003449 
-0.924847 0.397926 -0.003059 
-0.976522 0.208463 -0.002535 
-0.967426 -0.183815 -0.001174 
-0.907602 -0.372196 -0.000658 
-0.814249 -0.546609 0.000105 
-0.690368 -0.700314 0.000938 
-0.540046 -0.828465 0.001637 
-0.368555 -0.925823 0.002265 
-0.182220 -0.988271 0.002906 
0.207225 -0.997471 0.003708 
0.394762 -0.943281 0.003890 
0.566586 -0.851946 0.003913 
0.716175 -0.726476 0.003738 
0.837176 -0.573005 0.003488 
0.924982 -0.398065 0.003148 
0.976575 -0.208625 0.002653 
0.004436 -0.199886 0.978477 
0.006572 -0.389242 0.923502 
0.008541 -0.564301 0.833077 
0.010087 -0.717864 0.710236 
0.011291 -0.844128 0.559493 
0.012017 -0.937559 0.386885 
0.012516 -0.994232 0.198834 
0.011574 -0.991732 -0.191994 
0.010514 -0.932413 -0.379546 
0.008959 -0.837298 -0.552154 
0.007085 -0.710643 -0.703171 
0.005089 -0.557010 -0.826968 
0.002737 -0.382284 -0.919210 
0.000272 -0.193023 -0.976489 
-0.004286 0.199723 -0.978767 
-0.006495 0.389187 -0.923888 
-0.008485 0.564203 -0.833048 
-0.009974 0.717741 -0.710117 
-0.011158 0.844022 -0.559426 
-0.011907 0.937455 -0.386816 
-0.012400 0.994226 -0.198793 
-0.011496 0.991750 0.192136 
-0.010453 0.932477 0.379761 
-0.009035 0.837592 0.552156 
-0.007131 0.710784 0.703210 
-0.005258 0.557072 0.827015 
-0.002867 0.382427 0.919025 
-0.000338 0.193229 0.976250 
0.972438 -0.012572 0.196230 
0.916982 -0.012542 0.382914 
0.826012 -0.011836 0.555016 
0.703287 -0.010902 0.706027 
0.553274 -0.009588 0.829850 
0.381776 -0.007588 0.921619 
0.195589 -0.005336 0.977822 
-0.191720 -0.000665 0.976253 
-0.377484 0.001522 0.918655 
-0.549025 0.004200 0.826029 
-0.699387 0.006176 0.701798 
-0.822623 0.008216 0.550728 
-0.914256 0.009858 0.378736 
-0.970991 0.011153 0.192221 
-0.972470 0.012456 -0.196103 
-0.916938 0.012519 -0.382786 
-0.825930 0.011732 -0.554894 
-0.703198 0.010846 -0.705969 
-0.553067 0.009397 -0.829979 
-0.381842 0.007344 -0.921885 
-0.195769 0.005342 -0.978269 
0.191541 0.000949 -0.976440 
0.377674 -0.001547 -0.918856 
0.549053 -0.004100 -0.826152 
0.699239 -0.006223 -0.701764 
0.822412 -0.008253 -0.550675 
0.914196 -0.010045 -0.378656 
0.970991 -0.011391 -0.192029 
1.172381 0.179455 0.000978 
1.125745 0.361948 0.000540 
1.052522 0.535309 0.000115 
0.954694 0.696060 -0.000292 
0.833900 0.840587 -0.000504 
0.692587 0.965439 -0.001027 
0.534050 1.067479 -0.001338 
0.361823 1.144078 -0.001626 
0.179631 1.192812 -0.001961 
-0.196486 1.201098 -0.002278 
-0.380548 1.159843 -0.002567 
-0.555818 1.089005 -0.002552 
-0.716530 0.989630 -0.002706 
-0.858492 0.865258 -0.002433 
-0.978744 0.719961 -0.002262 
-1.073897 0.556935 -0.002162 
-1.141556 0.380782 -0.001928 
-1.180715 0.196335 -0.001686 
-1.172612 -0.179580 -0.000950 
-1.125917 -0.362202 -0.000412 
-1.052708 -0.535381 -0.000060 
-0.954930 -0.696339 0.000309 
-0.833769 -0.840851 0.000541 
-0.692458 -0.965477 0.001102 
-0.533973 -1.067331 0.001358 
-0.361795 -1.143950 0.001688 
-0.179624 -1.192866 0.001892 
0.196508 -1.201078 0.002321 
0.380667 -1.159823 0.002557 
0.555861 -1.089022 0.002617 
0.716587 -0.989659 0.002729 
0.858587 -0.865362 0.002481 
0.978872 -0.720059 0.002298 
1.073989 -0.557052 0.002201 
1.141682 -0.380855 0.001964 
1.180766 -0.196324 0.001725 
0.007847 -1.195844 -0.186273 
0.007318 -1.149855 -0.369579 
0.006636 -1.075563 -0.543341 
0.005952 -0.975001 -0.703409 
0.004762 -0.850855 -0.845713 
0.003492 -0.706216 -0.967265 
0.002414 -0.544474 -1.065029 
0.001213 -0.369834 -1.136767 
0.000124 -0.186407 -1.180964 
-0.002729 0.190868 -1.183331 
-0.003787 0.374590 -1.140959 
-0.004837 0.550222 -1.070630 
-0.005773 0.712419 -0.973855 
-0.006509 0.857571 -0.852426 
-0.007510 0.981664 -0.709995 
-0.007759 1.081715 -0.549385 
-0.008040 1.154366 -0.374617 
-0.008223 1.198252 -0.190771 
-0.007855 1.195815 0.186214 
-0.007332 1.149913 0.369663 
-0.006609 1.076007 0.543169 
-0.006088 0.975316 0.703441 
-0.004850 0.851004 0.845828 
-0.003283 0.706238 0.967209 
-0.002441 0.544482 1.065029 
-0.001271 0.369806 1.136627 
-0.000131 0.186295 1.180742 
0.002619 -0.190458 1.182956 
0.003782 -0.374707 1.140727 
0.004937 -0.550108 1.070610 
0.005817 -0.712440 0.973844 
0.006497 -0.857643 0.852528 
0.007569 -0.981749 0.710056 
0.007814 -1.081832 0.549443 
0.008100 -1.154431 0.374623 
0.008267 -1.198270 0.190802 
-1.175869 0.007629 0.185287 
-1.131847 0.007123 0.367439 
-1.060276 0.006200 0.540536 
-0.962593 0.005472 0.700620 
-0.841419 0.004100 0.843321 
-0.699548 0.002904 0.965079 
-0.539754 0.001781 1.063565 
-0.367432 0.000475 1.136425 
-0.185438 -0.000769 1.181053 
0.188097 -0.003437 1.182372 
0.370434 -0.004710 1.138833 
0.543549 -0.005667 1.067180 
0.703280 -0.006284 0.969034 
0.845410 -0.007290 0.847008 
0.966511 -0.008026 0.704070 
1.063406 -0.008139 0.544000 
1.134321 -0.008365 0.370392 
1.177264 -0.008367 0.188124 
1.175752 -0.007617 -0.185260 
1.131698 -0.007094 -0.367349 
1.060005 -0.006183 -0.540474 
0.962419 -0.005375 -0.700542 
0.841386 -0.004110 -0.843193 
0.699646 -0.003025 -0.965085 
0.539827 -0.001692 -1.063804 
0.367230 -0.000396 -1.136630 
0.185634 0.000487 -1.181213 
-0.188076 0.003321 -1.182723 
-0.370465 0.004949 -1.139287 
-0.543660 0.005630 -1.067303 
-0.703507 0.006576 -0.968981 
-0.845403 0.007227 -0.846930 
-0.966454 0.007929 -0.704005 
-1.063331 0.008043 -0.543937 
-1.134269 0.008284 -0.370349 
-1.177289 0.008315 -0.188095 
0.818697 -0.409219 -0.411587 
0.425291 -0.807150 -0.440488 
0.394287 -0.382378 -0.833424 
0.890517 -0.310829 -0.333464 
0.306480 -0.908851 -0.332112 
0.680683 -0.344822 -0.645368 
0.562671 -0.642400 -0.536912 
0.873468 -0.496759 -0.105362 
0.185799 -0.624713 -0.760110 
0.608995 -0.177620 -0.766160 
0.867820 -0.166583 -0.456473 
0.215649 -0.863016 -0.477824 
0.947452 -0.150233 -0.262617 
0.801332 -0.303385 -0.513795 
0.689729 -0.659338 -0.340855 
0.474868 -0.880531 -0.198952 
0.638409 -0.775889 -0.171857 
0.528427 -0.485550 -0.699388 
0.791701 -0.150998 -0.581760 
0.565755 -0.769285 -0.345953 
0.979225 -0.135304 -0.110718 
0.778352 -0.634302 -0.148948 
0.163778 -0.961473 -0.274838 
0.936746 -0.320528 -0.155988 
0.737804 -0.482144 -0.483650 
0.280382 -0.967605 -0.149232 
0.548186 -0.306974 -0.774557 
0.340068 -0.714500 -0.622657 
0.836667 -0.483075 -0.286796 
0.495082 -0.185886 -0.842463 
0.154872 -0.764968 -0.632225 
0.197932 -0.483807 -0.850619 
0.177621 -0.319287 -0.926703 
0.354733 -0.563288 -0.749192 
0.640217 -0.491604 -0.597148 
0.136386 -0.998677 -0.122191 
0.452231 -0.610906 -0.657786 
0.327584 -0.217985 -0.914159 
0.202982 -0.133051 -0.965016 
0.488996 0.582368 -0.636341 
0.490076 0.784467 -0.359518 
0.793357 0.365567 -0.451219 
0.390042 0.469658 -0.784691 
0.337224 0.890281 -0.304013 
0.283341 0.314921 -0.901004 
0.165255 0.166098 -0.968373 
0.749603 0.210020 -0.605732 
0.657755 0.533420 -0.504764 
0.487940 0.846392 -0.171854 
0.592508 0.172417 -0.773596 
0.171727 0.886777 -0.444272 
0.160456 0.480084 -0.862894 
0.541630 0.682446 -0.469887 
0.139423 0.964280 -0.259466 
0.383461 0.138534 -0.905452 
0.117219 0.327289 -0.936627 
0.610312 0.699560 -0.335096 
0.105834 0.632935 -0.772963 
0.157084 0.763222 -0.635124 
0.290825 0.628914 -0.719438 
0.839427 0.477199 -0.169529 
0.596854 0.390535 -0.683909 
0.363631 0.769850 -0.519885 
0.744523 0.547446 -0.334341 
0.113205 0.995805 -0.114303 
0.276104 0.952328 -0.142518 
0.690689 0.684478 -0.148316 
0.934155 0.136879 -0.282242 
0.463896 0.304276 -0.821833 
0.838895 0.401909 -0.313530 
0.863849 0.162098 -0.445138 
0.924060 0.282537 -0.174758 
0.881163 0.274886 -0.337434 
0.970236 0.117399 -0.129354 
0.711361 0.379133 -0.566298 
0.452675 0.454250 0.753795 
0.439531 0.802445 0.379062 
0.817448 0.401769 0.369344 
0.328061 0.308963 0.884291 
0.291338 0.907485 0.292764 
0.891404 0.327084 0.254004 
0.951079 0.156720 0.210108 
0.539098 0.626683 0.539119 
0.103548 0.480147 0.864910 
0.744815 0.156457 0.634166 
0.438940 0.153197 0.878550 
0.415123 0.884140 0.179818 
0.848516 0.462651 0.166567 
0.259972 0.136664 0.950779 
0.241266 0.961458 0.139309 
0.923427 0.311176 0.123233 
0.607637 0.150771 0.770388 
0.509328 0.284727 0.801053 
0.309279 0.626642 0.704354 
0.758321 0.612682 0.112679 
0.652739 0.717164 0.167409 
0.577740 0.487586 0.634354 
0.184101 0.754419 0.624360 
0.744075 0.569166 0.295135 
0.614536 0.678655 0.362766 
0.378713 0.717007 0.569793 
0.537168 0.799640 0.219178 
0.098350 0.995150 0.120596 
0.112085 0.119959 0.981848 
0.455342 0.589877 0.650115 
0.143859 0.612960 0.770772 
0.690036 0.498381 0.494372 
0.633246 0.341822 0.677162 
0.154639 0.306862 0.932820 
0.153716 0.954967 0.265390 
0.772701 0.310062 0.528198 
0.831536 0.129520 0.522029 
0.205371 0.867583 0.449223 
0.875105 0.222515 0.397474 
0.250409 0.474218 0.835508 
0.523244 -0.808878 0.347657 
0.334555 -0.383772 0.869471 
0.339354 -0.893445 0.364972 
0.156328 -0.475385 0.874213 
0.514088 -0.168865 0.843511 
0.438827 -0.905445 0.192797 
0.614427 -0.564099 0.581725 
0.269124 -0.182609 0.946956 
0.240109 -0.975543 0.183906 
0.914821 -0.390053 0.165906 
0.773344 -0.417159 0.501007 
0.746413 -0.679367 0.145363 
0.867056 -0.202755 0.459815 
0.951747 -0.195810 0.236470 
0.510665 -0.334768 0.801664 
0.576235 -0.695946 0.475969 
0.621680 -0.795755 0.167527 
0.716645 -0.657054 0.308794 
[...]
POINT_DATA 1108
SCALARS u float 1
LOOKUP_TABLE default
0.015625
0.015385
0.017927
0.017990
0.005339
0.005137
0.012101
0.012142
0.014617
0.014818
0.004314
0.004084
0.017745
0.019519
0.019766
0.018362
0.015948
0.014427
0.015043
0.020828
0.023194
0.023496
0.021617
0.018649
0.015577
0.014263
0.017521
0.019374
0.019413
0.018089
0.015896
0.014440
0.015169
0.020962
0.023183
0.023578
0.021711
0.018673
0.015739
0.014420
0.006929
0.009292
0.012319
0.015075
0.017410
0.018686
0.018747
0.016229
0.013900
0.011221
0.008843
0.006946
0.005427
0.004776
0.006626
0.009191
0.012207
0.014887
0.017232
0.018524
0.018658
0.016159
0.013846
0.011436
0.008920
0.007053
0.005644
0.004914
0.015134
0.014316
0.013046
0.011602
0.009991
0.007969
0.006124
0.005687
0.007527
0.009491
0.011222
0.013008
0.014331
0.015118
0.015010
0.014315
0.012992
0.011585
0.009838
0.007656
0.005944
0.005690
0.007261
0.009357
0.011366
0.013195
0.014522
0.015332
0.015307
0.017888
0.019191
0.018610
0.016652
0.013882
0.010959
0.009565
0.011263
0.018274
0.021125
0.022805
0.022052
0.019623
0.016781
0.013199
0.010150
0.009868
0.015043
0.017609
0.018994
0.018266
0.016645
0.013992
0.011061
0.009565
0.011292
0.018273
0.021161
0.022848
0.022108
0.019766
0.016932
0.013346
0.010233
0.009842
0.013282
0.011351
0.009302
0.007526
0.006001
0.005060
0.004836
0.004765
0.004462
0.004576
0.005352
0.007413
0.009623
0.011804
0.013987
0.015419
0.015830
0.015704
0.013271
0.011394
0.009619
0.007803
0.006078
0.004962
0.004850
0.004917
0.004707
0.004415
0.005450
0.007392
0.009662
0.011887
0.014105
0.015559
0.015916
0.015748
0.012316
0.012285
0.011675
0.010951
0.009719
0.008659
0.007769
0.005929
0.004818
0.004483
0.005316
0.006145
0.006851
0.008073
0.009198
0.010026
0.010882
0.011557
0.012403
0.012409
0.011897
0.011068
0.009816
0.008631
0.007529
0.005879
0.004550
0.004174
0.005342
0.006050
0.007071
0.008034
0.009150
0.009997
0.010855
0.011501
0.012893
0.016023
0.006675
0.013033
0.017702
0.009881
0.013305
0.016598
0.008054
0.008918
0.012493
0.014179
0.013892
0.011527
0.016897
0.021187
0.020973
0.009252
0.011382
0.018078
0.014405
0.018632
0.017229
0.014304
0.012782
0.020383
0.008004
0.011623
0.014873
0.007665
0.010467
0.005981
0.004888
0.008516
0.010932
0.018880
0.010564
0.005789
0.005132
0.013251
0.014743
0.017298
0.010950
0.014353
0.008498
0.006510
0.014552
0.015992
0.015199
0.011501
0.015170
0.010035
0.014946
0.016232
0.008225
0.008113
0.016428
0.012299
0.013793
0.011640
0.019728
0.013618
0.013415
0.018128
0.016332
0.014703
0.018189
0.016716
0.010611
0.018607
0.016137
0.018800
0.017865
0.017063
0.015788
0.011397
0.014156
0.017781
0.008482
0.013297
0.018110
0.016863
0.014562
0.007252
0.013246
0.008845
0.014366
0.019431
0.006626
0.014015
0.018782
0.011109
0.010604
0.010541
0.019085
0.017649
0.014064
0.010154
0.018174
0.016652
0.012430
0.015814
0.015382
0.005470
0.012641
0.008549
0.016283
0.013395
0.006426
0.013713
0.015597
0.014243
0.011986
0.016045
0.008542
0.024370
0.012315
0.023619
0.012123
0.010372
0.024574
0.019410
0.008310
0.022721
0.016306
0.016947
0.021596
0.014020
0.014588
0.013098
0.022277
0.024045
0.021843
0.006383
0.008858
0.019734
0.021226
0.022455
0.018815
0.020614
0.013073
0.022274
0.017061
0.020045
0.018444
0.015509
0.019832
0.015975
0.015593
0.011700
0.010125
0.015906
0.020341
0.013332
0.014743
0.016853
0.010957
0.014379
0.008722
0.006668
0.014456
0.015921
0.015194
0.011586
0.015290
0.010046
0.014757
0.016279
0.008397
0.008103
0.016246
0.012384
0.013919
0.011800
0.019449
0.013616
0.013556
0.018180
0.016435
0.014726
0.017873
0.016460
0.010685
0.018387
0.015815
0.018479
0.017473
0.016876
0.015621
0.011297
0.014180
0.017758
0.008193
0.013118
0.018120
0.016769
0.014444
0.007055
0.013308
0.008572
0.014321
0.019071
0.006471
0.014094
0.018654
0.011174
0.010578
0.010573
0.018831
0.017321
0.013893
0.010213
0.018240
0.016551
0.012394
0.015768
0.015428
0.005234
0.012626
0.008464
0.016077
0.013338
0.006240
0.013617
0.015554
0.014295
0.011935
0.016237
0.008596
0.024174
0.012136
0.023382
0.011794
0.010290
0.024421
0.019205
0.008010
0.022586
0.016159
0.016805
0.021473
0.013918
0.014468
0.012953
0.022065
0.023933
0.021625
0.006092
0.008646
0.019501
0.020999
0.022263
0.018692
0.020355
0.012955
0.022026
0.016765
0.019867
0.018288
0.015352
0.019622
0.015822
0.015385
0.011668
0.009949
0.015762
0.020244
0.012843
0.016241
0.006788
0.012930
0.017954
0.009859
0.013387
0.016500
0.008182
0.008936
0.012330
0.014473
0.013742
0.011450
0.016838
0.021168
0.020647
0.009336
0.011291
0.017875
0.014207
0.018624
0.017190
0.014134
0.012753
0.020340
0.008055
0.011822
0.014842
0.007772
0.010628
0.006136
0.004980
0.008701
0.010966
0.018722
0.010744
0.005879
0.005213
0.020196
0.015805
0.009869
0.011561
0.022602
0.009898
0.021266
0.007130
0.009591
0.020213
0.004687
0.010042
0.017080
0.013733
0.008924
0.018138
0.006837
0.010557
0.022951
0.017458
0.016234
0.023797
0.009269
0.018929
0.008772
0.018634
0.011701
0.022717
0.009814
0.018759
0.012510
0.012938
0.016023
0.018580
0.015341
0.022467
0.013816
0.008201
0.015122
0.009620
0.012107
0.007707
0.013155
0.010975
0.020182
0.010587
0.021288
0.020220
0.021754
0.014311
0.023592
0.016750
0.021072
0.017538
0.010240
0.019631
0.013565
0.008403
0.019255
0.006039
0.005922
0.005339
0.014499
0.010828
0.007113
0.009549
0.017678
0.010396
0.016932
0.006253
0.010756
0.016485
0.004998
0.013117
0.008597
0.007402
0.011070
0.013944
0.009196
0.006965
0.017272
0.012197
0.012239
0.018503
0.012428
0.014855
0.005920
0.012709
0.009725
0.018452
0.013022
0.014597
0.009261
0.008401
0.011705
0.013162
0.010129
0.016697
0.009431
0.010850
0.011968
0.006777
0.010923
0.009020
0.010773
0.008901
0.015408
0.009677
0.016515
0.015144
0.017547
0.010431
0.018608
0.010983
0.015117
0.014253
0.013003
0.009036
0.014421
0.008358
0.015389
0.007400
0.005196
0.006025
0.012949
0.012849
0.009324
0.007421
0.015641
0.006441
0.015868
0.008833
0.005195
0.013321
0.010437
0.016783
0.007858
0.007895
0.018741
0.006383
0.012494
0.007604
0.014001
0.010598
0.007978
0.011747
0.018001
0.005989
0.008265
0.013605
0.006493
0.013074
0.015887
0.005220
0.011542
0.010109
0.014496
0.014869
0.011887
0.016248
0.009549
0.017652
0.005973
0.008833
0.014162
0.006990
0.015593
0.008321
0.017626
0.007886
0.017333
0.011466
0.009065
0.008336
0.014289
0.015193
0.011690
0.013849
0.004453
0.010093
0.016563
0.010926
0.009726
0.009957
0.009850
0.009339
0.006800
0.011576
0.016525
0.004832
0.008614
0.004575
0.008923
0.005206
0.010304
0.006906
0.016051
0.010002
0.018464
0.004751
0.013822
0.010389
0.020739
0.007323
0.005728
0.006834
0.008806
0.004427
0.010093
0.020185
0.008894
0.005779
0.009632
0.004626
0.009356
0.014334
0.013904
0.019221
0.010238
0.015041
0.011626
0.008699
0.009066
0.004681
0.005368
0.017329
0.012791
0.017914
0.007597
0.019739
0.005194
0.012501
0.004074
0.009994
0.006791
0.008562
0.005438
0.008101
0.006408
0.009082
0.010573
0.004663
0.012115
0.006658
0.017703
0.008180
0.016199
0.015892
0.015367
0.011930
0.007780
0.016856
0.009407
0.015836
0.008844
0.015777
0.009690
0.008132
0.011809
0.009924
0.007716
0.007472
0.011968
0.005979
0.007927
0.013479
0.017269
0.018466
0.012797
0.008795
0.013106
0.006854
0.013862
0.017875
0.009685
0.010404
0.013358
0.009891
0.006008
0.005112
0.011594
0.009788
0.011829
0.013380
0.010940
0.016301
0.006592
0.009784
0.009253
0.007654
0.008893
0.006093
0.013927
0.008820
0.015210
0.008786
0.015895
0.017380
0.017955
0.011154
0.012899
0.015082
0.011709
0.013722
0.014154
0.010628
0.006084
0.015630
0.004994
0.004125
0.006832
0.011498
0.015144
0.004845
0.008673
0.004576
0.008990
0.017113
0.005128
0.010363
0.016764
0.006786
0.016125
0.009821
0.004727
0.013930
0.009965
0.020936
0.007380
0.005746
0.006791
0.008872
0.004414
0.010225
0.013271
0.008840
0.005670
0.009706
0.004534
0.009394
0.014373
0.010019
0.014455
0.011447
0.008538
0.009092
0.004634
0.005384
0.017678
0.012281
0.017849
0.007509
0.019691
0.005090
0.012505
0.004071
0.010069
0.006841
0.008644
0.005404
0.008154
0.006336
0.009056
0.010575
0.004431
0.006479
0.011982
0.018401
0.008235
0.013391
0.020442
0.019435
0.020398
0.016009
0.009049
0.011695
0.022790
0.010012
0.021408
0.009645
0.020287
0.010028
0.017255
0.008980
0.013896
0.009017
0.018338
0.006956
0.010336
0.023117
0.017657
0.016373
0.023922
0.009326
0.019104
0.006430
0.018830
0.011842
0.022834
0.009836
0.018845
0.012654
0.007671
0.005085
0.012428
0.016160
0.018794
0.015357
0.022655
0.013978
0.008293
0.015278
0.009192
0.011879
0.007734
0.013308
0.011066
0.020378
0.010717
0.021502
0.020433
0.021869
0.014468
0.023757
0.016906
0.021253
0.017614
0.010258
0.013522
0.019797
0.005986
0.019414
0.004833
0.004311
0.008688
0.014398
0.016564
0.009754
0.006569
0.010400
0.006253
0.016890
0.013156
0.004908
0.015297
0.015361
0.011951
0.014008
0.012248
0.009478
0.018284
0.013501
0.007525
0.008836
0.011384
0.006866
0.009701
0.007289
0.015141
0.011442
0.012306
0.005638
0.010805
0.005598
0.016445
0.015537
0.014260
0.012902
0.013165
0.008633
0.009702
0.015404
0.010500
0.017212
0.015424
0.017389
0.012062
0.011975
0.010297
0.009926
0.008204
0.008806
0.008835
0.009849
0.006615
0.010717
0.010173
0.004693
0.013091
0.011602
0.012634
0.018152
0.010954
0.018545
0.014134
0.017318
0.005307
0.011891
0.016450
0.009841
0.012337
0.004906
0.006341
0.016829
0.006976
0.004488
0.012692
0.016582
0.012851
0.013034
0.015542
0.016239
0.012001
0.014654
0.009664
0.008244
0.022249
0.018524
0.017915
0.016537
0.016473
0.017659
0.016332
0.016902
0.017078
0.014537
0.006258
0.009313
0.013209
0.021245
0.024845
0.014699
0.017545
0.021423
0.017392
0.016441
0.013615
0.010556
0.010138
0.019881
0.014744
0.010661
0.016133
0.016323
0.006586
0.017117
0.016783
0.012373
0.015419
0.004898
0.006876
0.012314
0.009544
0.020610
0.017770
0.015468
0.017647
0.007411
0.007073
0.005521
0.012529
0.019433
0.005841
0.008994
0.015944
0.017913
0.017331
0.016118
0.006040
0.010257
0.014500
0.007848
0.006497
0.014471
0.015094
0.008983
0.011689
0.014597
0.016660
0.015428
0.018284
0.019095
0.023720
0.020584
0.021783
0.013242
0.018674
0.022769
0.015863
0.010313
0.012664
0.008722
0.005824
0.006674
0.019138
0.009297
0.015991
0.006310
