# vtk DataFile Version 2.0
Unstructured Grid Example
ASCII
DATASET UNSTRUCTURED_GRID
POINTS 1108 float
0.982712 -0.022407 0.003677 
-0.982982 0.022090 -0.003457 
-0.022314 1.023172 -0.006106 
0.022304 -1.023327 0.006166 
0.003654 -0.005944 0.993189 
-0.003732 0.006180 -0.994009 
1.183771 -0.014803 0.002439 
-1.183786 0.014955 -0.002290 
-0.014781 1.221902 -0.003809 
0.015091 -1.222103 0.004021 
0.002361 -0.003961 1.193612 
-0.002325 0.003837 -1.194041 
0.956016 0.174314 0.002271 
0.893909 0.363409 0.001101 
0.799397 0.538998 -0.000056 
0.675968 0.694759 -0.001619 
0.527064 0.826299 -0.003026 
0.356975 0.927857 -0.004196 
0.171785 0.994386 -0.005169 
-0.217058 1.011129 -0.006612 
-0.404598 0.959450 -0.007000 
-0.575537 0.868808 -0.006980 
-0.723337 0.742468 -0.006708 
-0.841877 0.587384 -0.006299 
-0.925646 0.410524 -0.005587 
-0.972999 0.219515 -0.004631 
-0.956386 -0.174496 -0.002145 
-0.894150 -0.363529 -0.001202 
-0.800018 -0.539203 0.000191 
-0.676534 -0.694700 0.001713 
-0.527217 -0.825983 0.002990 
-0.356879 -0.927429 0.004137 
-0.171584 -0.994457 0.005307 
0.217253 -1.011260 0.006773 
0.404744 -0.959315 0.007104 
0.575690 -0.868867 0.007146 
0.723669 -0.742483 0.006828 
0.841892 -0.587414 0.006370 
0.925894 -0.410776 0.005749 
0.973096 -0.219810 0.004845 
0.008102 -0.203850 0.976569 
0.012003 -0.394663 0.923190 
0.015600 -0.571515 0.834406 
0.018424 -0.726754 0.712822 
0.020622 -0.854590 0.562735 
0.021948 -0.948864 0.390358 
0.022859 -1.005344 0.201929 
0.021140 -1.000779 -0.189435 
0.019203 -0.939466 -0.376954 
0.016363 -0.842114 -0.549330 
0.012940 -0.713566 -0.699918 
0.009295 -0.558200 -0.823248 
0.004998 -0.381954 -0.915351 
0.000497 -0.191315 -0.972938 
-0.007829 0.203552 -0.977099 
-0.011862 0.394562 -0.923895 
-0.015498 0.571337 -0.834352 
-0.018217 0.726529 -0.712605 
-0.020379 0.854396 -0.562612 
-0.021747 0.948674 -0.390231 
-0.022649 1.005333 -0.201853 
-0.020997 1.000811 0.189694 
-0.019092 0.939581 0.377347 
-0.016503 0.842652 0.549334 
-0.013025 0.713823 0.699989 
-0.009603 0.558313 0.823333 
-0.005236 0.382215 0.915013 
-0.000617 0.191690 0.972502 
0.965540 -0.022962 0.197173 
0.911281 -0.022908 0.383105 
0.821502 -0.021618 0.554559 
0.700131 -0.019911 0.705134 
0.551376 -0.017512 0.828512 
0.381026 -0.013858 0.919751 
0.196002 -0.009746 0.975374 
-0.188935 -0.001215 0.972508 
-0.373187 0.002780 0.914337 
-0.543616 0.007672 0.821532 
-0.693006 0.011281 0.697411 
-0.815311 0.015005 0.546726 
-0.906303 0.018005 0.375473 
-0.962897 0.020370 0.189850 
-0.965598 0.022749 -0.196940 
-0.911201 0.022865 -0.382871 
-0.821351 0.021429 -0.554335 
-0.699967 0.019809 -0.705029 
-0.550999 0.017162 -0.828746 
-0.381147 0.013413 -0.920237 
-0.196330 0.009757 -0.976189 
0.188608 0.001734 -0.972850 
0.373534 -0.002826 -0.914704 
0.543667 -0.007488 -0.821758 
0.692737 -0.011366 -0.697348 
0.814927 -0.015074 -0.546629 
0.906194 -0.018346 -0.375327 
0.962897 -0.020806 -0.189500 
1.161765 0.172623 0.001787 
1.112916 0.354616 0.000987 
1.038733 0.527474 0.000210 
0.941366 0.688388 -0.000534 
0.821812 0.834024 -0.000921 
0.682046 0.960991 -0.001875 
0.525176 1.066051 -0.002444 
0.354387 1.146401 -0.002969 
0.172944 1.199081 -0.003582 
-0.203730 1.214216 -0.004160 
-0.388588 1.175195 -0.004689 
-0.564932 1.105365 -0.004662 
-0.725776 1.005175 -0.004943 
-0.866726 0.879084 -0.004444 
-0.985292 0.732042 -0.004131 
-1.077773 0.566973 -0.003948 
-1.141793 0.389014 -0.003522 
-1.176987 0.203453 -0.003080 
-1.162188 -0.172853 -0.001735 
-1.113230 -0.355080 -0.000752 
-1.039072 -0.527607 -0.000110 
-0.941798 -0.688899 0.000564 
-0.821571 -0.834507 0.000987 
-0.681811 -0.961061 0.002013 
-0.525034 -1.065781 0.002481 
-0.354337 -1.146167 0.003082 
-0.172933 -1.199181 0.003456 
0.203770 -1.214179 0.004240 
0.388804 -1.175157 0.004671 
0.565012 -1.105397 0.004780 
0.725881 -1.005227 0.004985 
0.866899 -0.879274 0.004532 
0.985526 -0.732222 0.004197 
1.077941 -0.567188 0.004021 
1.142024 -0.389147 0.003587 
1.177081 -0.203434 0.003151 
0.014332 -1.204620 -0.185076 
0.013366 -1.156952 -0.368552 
0.012120 -1.080816 -0.542144 
0.010870 -0.978456 -0.701811 
0.008697 -0.852778 -0.843387 
0.006378 -0.706937 -0.964326 
0.004408 -0.544215 -1.061576 
0.002216 -0.369019 -1.133047 
0.000226 -0.185320 -1.177442 
-0.004984 0.193469 -1.181766 
-0.006917 0.377706 -1.140704 
-0.008835 0.554713 -1.071805 
-0.010543 0.718267 -0.976363 
-0.011887 0.865045 -0.855647 
-0.013716 0.990625 -0.713840 
-0.014171 1.092051 -0.553184 
-0.014684 1.165190 -0.377754 
-0.015019 1.209017 -0.193291 
-0.014347 1.204566 0.184968 
-0.013391 1.157057 0.368706 
-0.012070 1.081625 0.541830 
-0.011120 0.979031 0.701869 
-0.008858 0.853051 0.843597 
-0.005996 0.706977 0.964225 
-0.004459 0.544228 1.061575 
-0.002322 0.368967 1.132793 
-0.000239 0.185117 1.177037 
0.004783 -0.192719 1.181080 
0.006908 -0.377919 1.140281 
0.009017 -0.554504 1.071769 
0.010624 -0.718306 0.976343 
0.011866 -0.865177 0.855833 
0.013825 -0.990781 0.713951 
0.014272 -1.092265 0.553290 
0.014794 -1.165309 0.377766 
0.015099 -1.209051 0.193348 
-1.168137 0.013934 0.183276 
-1.124061 0.013009 0.364645 
-1.052895 0.011324 0.537022 
-0.955794 0.009994 0.696717 
-0.835543 0.007489 0.839018 
-0.694760 0.005304 0.960333 
-0.535593 0.003253 1.058902 
-0.364632 0.000868 1.132423 
-0.183551 -0.001404 1.177605 
0.188407 -0.006277 1.180013 
0.370114 -0.008603 1.136821 
0.542525 -0.010350 1.065504 
0.701576 -0.011478 0.967557 
0.842832 -0.013314 0.845752 
0.962950 -0.014659 0.703018 
1.058612 -0.014866 0.543349 
1.128580 -0.015278 0.370039 
1.170684 -0.015281 0.188456 
1.167922 -0.013912 -0.183225 
1.123788 -0.012957 -0.364480 
1.052400 -0.011294 -0.536908 
0.955477 -0.009816 -0.696576 
0.835483 -0.007506 -0.838784 
0.694939 -0.005524 -0.960345 
0.535726 -0.003091 -1.059338 
0.364263 -0.000724 -1.132797 
0.183908 0.000889 -1.177896 
-0.188369 0.006066 -1.180654 
-0.370171 0.009039 -1.137649 
-0.542726 0.010284 -1.065729 
-0.701990 0.012011 -0.967461 
-0.842820 0.013199 -0.845609 
-0.962846 0.014481 -0.702899 
-1.058475 0.014690 -0.543233 
-1.128484 0.015130 -0.369960 
-1.170730 0.015187 -0.188403 
0.818584 -0.419526 -0.408888 
0.431886 -0.818445 -0.438422 
0.394375 -0.386440 -0.829693 
0.888470 -0.321026 -0.330666 
0.314701 -0.920757 -0.329953 
0.679456 -0.352156 -0.641993 
0.566634 -0.652365 -0.534481 
0.876277 -0.509925 -0.102729 
0.189918 -0.628950 -0.757045 
0.605687 -0.182688 -0.761954 
0.862922 -0.175021 -0.453095 
0.222915 -0.871931 -0.475579 
0.942068 -0.159970 -0.259788 
0.799178 -0.312109 -0.510632 
0.694741 -0.672164 -0.338538 
0.483571 -0.895543 -0.196613 
0.646016 -0.791254 -0.169313 
0.529657 -0.492392 -0.696205 
0.786998 -0.158168 -0.577892 
0.572426 -0.782478 -0.343795 
0.973702 -0.145588 -0.108383 
0.783506 -0.648583 -0.146381 
0.172825 -0.972227 -0.272548 
0.935361 -0.331980 -0.153403 
0.739018 -0.492294 -0.480989 
0.289857 -0.981295 -0.146669 
0.546718 -0.312169 -0.770734 
0.344969 -0.722391 -0.620212 
0.838553 -0.494931 -0.284156 
0.492300 -0.189561 -0.838118 
0.160724 -0.770783 -0.629624 
0.200155 -0.486433 -0.847071 
0.178048 -0.320335 -0.922826 
0.357371 -0.569033 -0.746100 
0.641591 -0.500099 -0.594396 
0.146129 -1.010589 -0.119616 
0.455408 -0.618575 -0.655083 
0.326047 -0.219796 -0.910005 
0.201250 -0.133253 -0.961150 
0.478233 0.581696 -0.634430 
0.477895 0.784234 -0.359430 
0.780812 0.359599 -0.447848 
0.381258 0.470345 -0.782629 
0.325919 0.893651 -0.305258 
0.276910 0.316332 -0.898561 
0.161110 0.168132 -0.965611 
0.739668 0.204686 -0.601552 
0.645353 0.529686 -0.502129 
0.475422 0.845745 -0.172661 
0.584670 0.169177 -0.769305 
0.161668 0.893972 -0.446328 
0.153321 0.484271 -0.862328 
0.529436 0.681011 -0.468537 
0.128994 0.972343 -0.261951 
0.377917 0.137781 -0.901591 
0.111819 0.331003 -0.935208 
0.597142 0.696408 -0.334124 
0.097854 0.639142 -0.774014 
0.147832 0.769711 -0.636613 
0.281771 0.632140 -0.719036 
0.825022 0.469702 -0.168086 
0.586522 0.387772 -0.680407 
0.352826 0.772328 -0.520084 
0.730796 0.541817 -0.332259 
0.102841 1.004065 -0.116858 
0.264995 0.956864 -0.144434 
0.676532 0.679429 -0.148089 
0.923577 0.128481 -0.279340 
0.455926 0.303190 -0.818339 
0.825459 0.394902 -0.310915 
0.853226 0.154981 -0.441349 
0.911222 0.274027 -0.172720 
0.868831 0.267374 -0.334357 
0.959777 0.108178 -0.127248 
0.699706 0.374540 -0.562648 
0.445637 0.449537 0.749676 
0.428499 0.800205 0.375879 
0.805642 0.393331 0.367029 
0.324110 0.304809 0.880257 
0.280834 0.909151 0.290001 
0.879454 0.318149 0.252834 
0.941210 0.146881 0.210090 
0.528751 0.621844 0.535330 
0.099324 0.479487 0.860710 
0.738221 0.147995 0.631989 
0.435852 0.147312 0.875506 
0.403518 0.883819 0.177333 
0.834893 0.454218 0.165485 
0.258442 0.132495 0.947575 
0.230644 0.965420 0.136934 
0.910933 0.301967 0.123038 
0.602910 0.143325 0.767838 
0.503963 0.278825 0.797424 
0.301814 0.624689 0.700311 
0.744202 0.605757 0.111471 
0.639304 0.711827 0.165472 
0.568589 0.481573 0.630455 
0.176483 0.755256 0.620940 
0.731144 0.561885 0.292822 
0.602287 0.673168 0.359724 
0.369443 0.714753 0.565985 
0.524762 0.796401 0.216650 
0.088340 1.002578 0.118101 
0.111826 0.116981 0.978457 
0.446668 0.585690 0.646069 
0.137952 0.612867 0.766897 
0.679130 0.491224 0.491067 
0.625442 0.334762 0.673727 
0.151982 0.304632 0.928799 
0.143866 0.959952 0.262828 
0.763191 0.301829 0.525383 
0.824430 0.120251 0.520565 
0.196230 0.869830 0.446137 
0.865582 0.213396 0.396063 
0.245220 0.471980 0.831277 
0.532744 -0.825986 0.352420 
0.338717 -0.392911 0.871127 
0.349318 -0.909566 0.369647 
0.161961 -0.483518 0.875791 
0.514720 -0.177413 0.843580 
0.448962 -0.922545 0.196961 
0.620727 -0.578262 0.585850 
0.271129 -0.189139 0.946248 
0.250366 -0.990789 0.187770 
0.916351 -0.403186 0.168511 
0.776757 -0.430411 0.503986 
0.753431 -0.695393 0.148891 
0.865843 -0.214204 0.461117 
0.949065 -0.207442 0.238152 
0.513824 -0.344960 0.803481 
0.584322 -0.711789 0.480717 
0.630593 -0.813062 0.171516 
0.723952 -0.673067 0.312804 
[...]
POINT_DATA 1108
SCALARS u float 1
LOOKUP_TABLE default
0.028539
0.028099
0.032743
0.032857
0.009751
0.009382
0.022101
0.022176
0.026696
0.027064
0.007879
0.007459
0.032409
0.035650
0.036101
0.033537
0.029129
0.026351
0.027474
0.038040
0.042362
0.042914
0.039482
0.034060
0.028450
0.026050
0.032000
0.035386
0.035456
0.033038
0.029034
0.026374
0.027706
0.038286
0.042342
0.043063
0.039653
0.034106
0.028745
0.026337
0.012655
0.016972
0.022500
0.027534
0.031798
0.034129
0.034241
0.029642
0.025387
0.020494
0.016151
0.012685
0.009912
0.008723
0.012103
0.016787
0.022295
0.027191
0.031472
0.033833
0.034078
0.029513
0.025289
0.020887
0.016292
0.012882
0.010308
0.008975
0.027641
0.026147
0.023827
0.021190
0.018248
0.014555
0.011185
0.010386
0.013747
0.017335
0.020496
0.023759
0.026175
0.027611
0.027415
0.026145
0.023729
0.021159
0.017968
0.013984
0.010857
0.010392
0.013262
0.017091
0.020759
0.024100
0.026523
0.028002
0.027957
0.032671
0.035051
0.033989
0.030413
0.025354
0.020015
0.017470
0.020571
0.033376
0.038584
0.041652
0.040277
0.035841
0.030649
0.024106
0.018539
0.018024
0.027474
0.032162
0.034690
0.033362
0.030402
0.025555
0.020202
0.017471
0.020624
0.033374
0.038649
0.041731
0.040380
0.036102
0.030926
0.024375
0.018690
0.017976
0.024259
0.020732
0.016989
0.013745
0.010961
0.009241
0.008833
0.008703
0.008149
0.008357
0.009776
0.013539
0.017576
0.021559
0.025545
0.028162
0.028913
0.028682
0.024238
0.020811
0.017568
0.014252
0.011101
0.009062
0.008857
0.008981
0.008597
0.008064
0.009954
0.013500
0.017647
0.021710
0.025762
0.028418
0.029070
0.028762
0.022494
0.022438
0.021323
0.020001
0.017752
0.015815
0.014190
0.010830
0.008801
0.008188
0.009710
0.011224
0.012513
0.014745
0.016800
0.018312
0.019875
0.021107
0.022653
0.022663
0.021729
0.020215
0.017929
0.015763
0.013751
0.010737
0.008310
0.007623
0.009758
0.011050
0.012915
0.014674
0.016711
0.018259
0.019826
0.021006
0.023548
0.029265
0.012191
0.023803
0.032332
0.018048
0.024301
0.030315
0.014711
0.016289
0.022818
0.025897
0.025373
0.021054
0.030862
0.038696
0.038305
0.016898
0.020788
0.033019
0.026309
0.034030
0.031468
0.026126
0.023345
0.037227
0.014619
0.021228
0.027164
0.013999
0.019117
0.010924
0.008928
0.015554
0.019967
0.034483
0.019295
0.010574
0.009372
0.024203
0.026926
0.031593
0.019999
0.026215
0.015521
0.011890
0.026579
0.029209
0.027760
0.021006
0.027707
0.018328
0.027298
0.029647
0.015022
0.014818
0.030005
0.022464
0.025192
0.021260
0.036031
0.024871
0.024502
0.033110
0.029829
0.026854
0.033222
0.030531
0.019380
0.033984
0.029473
0.034338
0.032630
0.031164
0.028836
0.020816
0.025854
0.032477
0.015493
0.024286
0.033076
0.030799
0.026596
0.013245
0.024192
0.016155
0.026238
0.035490
0.012102
0.025598
0.034304
0.020291
0.019367
0.019252
0.034858
0.032235
0.025687
0.018545
0.033194
0.030413
0.022702
0.028882
0.028095
0.009990
0.023088
0.015614
0.029740
0.024465
0.011736
0.025045
0.028486
0.026013
0.021891
0.029305
0.015602
0.044511
0.022492
0.043138
0.022141
0.018945
0.044883
0.035451
0.015178
0.041499
0.029782
0.030953
0.039444
0.025607
0.026644
0.023923
0.040688
0.043917
0.039895
0.011658
0.016178
0.036042
0.038767
0.041012
0.034363
0.037650
0.023877
0.040681
0.031161
0.036611
0.033688
0.028326
0.036222
0.029177
0.028480
0.021369
0.018493
0.029052
0.037151
0.024349
0.026928
0.030781
0.020012
0.026263
0.015930
0.012179
0.026403
0.029079
0.027751
0.021161
0.027927
0.018349
0.026952
0.029732
0.015337
0.014800
0.029672
0.022618
0.025421
0.021551
0.035522
0.024868
0.024759
0.033205
0.030017
0.026895
0.032643
0.030063
0.019515
0.033582
0.028885
0.033751
0.031912
0.030824
0.028531
0.020632
0.025899
0.032434
0.014963
0.023960
0.033095
0.030628
0.026380
0.012886
0.024306
0.015656
0.026156
0.034833
0.011819
0.025741
0.034071
0.020409
0.019320
0.019310
0.034394
0.031635
0.025374
0.018653
0.033314
0.030230
0.022636
0.028800
0.028178
0.009560
0.023060
0.015458
0.029363
0.024361
0.011397
0.024870
0.028409
0.026108
0.021799
0.029655
0.015700
0.044153
0.022166
0.042706
0.021541
0.018794
0.044603
0.035077
0.014629
0.041252
0.029514
0.030694
0.039219
0.025421
0.026424
0.023658
0.040300
0.043712
0.039496
0.011126
0.015791
0.035617
0.038353
0.040661
0.034139
0.037176
0.023662
0.040230
0.030620
0.036285
0.033401
0.028039
0.035838
0.028897
0.028099
0.021310
0.018171
0.028789
0.036974
0.023456
0.029663
0.012399
0.023616
0.032791
0.018008
0.024450
0.030137
0.014944
0.016320
0.022521
0.026435
0.025099
0.020912
0.030754
0.038662
0.037710
0.017051
0.020622
0.032647
0.025947
0.034016
0.031396
0.025815
0.023292
0.037150
0.014712
0.021591
0.027107
0.014195
0.019411
0.011208
0.009096
0.015892
0.020028
0.034195
0.019623
0.010737
0.009521
0.036886
0.028867
0.018024
0.021114
0.041281
0.018078
0.038841
0.013022
0.017517
0.036918
0.008560
0.018341
0.031196
0.025082
0.016300
0.033129
0.012487
0.019282
0.041918
0.031886
0.029650
0.043464
0.016929
0.034572
0.016021
0.034034
0.021372
0.041492
0.017925
0.034262
0.022848
0.023631
0.029265
0.033935
0.028020
0.041035
0.025235
0.014979
0.027619
0.017570
0.022113
0.014077
0.024026
0.020044
0.036861
0.019336
0.038881
0.036931
0.039731
0.026138
0.043089
0.030593
0.038486
0.032031
0.018703
0.035856
0.024775
0.015347
0.035168
0.011031
0.010817
0.009752
0.026481
0.019776
0.012991
0.017440
0.032287
0.018988
0.030925
0.011420
0.019645
0.030109
0.009129
0.023957
0.015702
0.013520
0.020219
0.025469
0.016795
0.012720
0.031545
0.022277
0.022354
0.033795
0.022698
0.027131
0.010813
0.023212
0.017763
0.033701
0.023784
0.026660
0.016914
0.015344
0.021378
0.024039
0.018500
0.030497
0.017225
0.019817
0.021859
0.012377
0.019950
0.016475
0.019677
0.016257
0.028141
0.017675
0.030164
0.027659
0.032048
0.019051
0.033986
0.020060
0.027610
0.026033
0.023750
0.016504
0.026339
0.015266
0.028106
0.013516
0.009490
0.011004
0.023650
0.023468
0.017029
0.013554
0.028566
0.011764
0.028981
0.016132
0.009487
0.024330
0.019062
0.030652
0.014353
0.014419
0.034230
0.011658
0.022819
0.013888
0.025571
0.019357
0.014571
0.021455
0.032878
0.010938
0.015095
0.024848
0.011859
0.023878
0.029016
0.009534
0.021080
0.018463
0.026475
0.027157
0.021711
0.029676
0.017441
0.032240
0.010910
0.016133
0.025866
0.012767
0.028480
0.015198
0.032192
0.014403
0.031657
0.020941
0.016556
0.015225
0.026098
0.027748
0.021351
0.025295
0.008134
0.018434
0.030251
0.019956
0.017764
0.018186
0.017990
0.017057
0.012420
0.021142
0.030182
0.008826
0.015733
0.008356
0.016297
0.009509
0.018820
0.012613
0.029317
0.018268
0.033723
0.008677
0.025245
0.018976
0.037878
0.013375
0.010462
0.012482
0.016084
0.008086
0.018433
0.036866
0.016243
0.010555
0.017592
0.008448
0.017088
0.026180
0.025396
0.035105
0.018699
0.027471
0.021234
0.015888
0.016558
0.008549
0.009804
0.031650
0.023362
0.032719
0.013875
0.036052
0.009486
0.022832
0.007440
0.018253
0.012403
0.015637
0.009933
0.014796
0.011704
0.016588
0.019310
0.008517
0.022127
0.012161
0.032333
0.014940
0.029586
0.029026
0.028067
0.021790
0.014210
0.030787
0.017181
0.028923
0.016152
0.028816
0.017698
0.014853
0.021568
0.018126
0.014092
0.013646
0.021858
0.010920
0.014478
0.024619
0.031541
0.033726
0.023373
0.016064
0.023936
0.012519
0.025318
0.032648
0.017689
0.019003
0.024398
0.018065
0.010973
0.009337
0.021176
0.017876
0.021605
0.024438
0.019980
0.029773
0.012040
0.017869
0.016901
0.013979
0.016242
0.011129
0.025438
0.016110
0.027780
0.016047
0.029031
0.031744
0.032793
0.020371
0.023559
0.027546
0.021386
0.025062
0.025851
0.019410
0.011113
0.028547
0.009121
0.007534
0.012479
0.021000
0.027659
0.008848
0.015840
0.008357
0.016420
0.031256
0.009365
0.018928
0.030618
0.012394
0.029452
0.017938
0.008633
0.025441
0.018200
0.038239
0.013479
0.010495
0.012403
0.016204
0.008062
0.018675
0.024238
0.016145
0.010357
0.017728
0.008280
0.017158
0.026251
0.018299
0.026401
0.020907
0.015595
0.016606
0.008464
0.009834
0.032288
0.022431
0.032599
0.013714
0.035964
0.009296
0.022839
0.007435
0.018391
0.012494
0.015788
0.009870
0.014892
0.011572
0.016540
0.019314
0.008093
0.011833
0.021884
0.033607
0.015040
0.024458
0.037337
0.035497
0.037256
0.029239
0.016527
0.021360
0.041624
0.018285
0.039100
0.017616
0.037053
0.018316
0.031515
0.016402
0.025379
0.016468
0.033493
0.012705
0.018878
0.042221
0.032249
0.029905
0.043693
0.017033
0.034891
0.011745
0.034392
0.021628
0.041704
0.017964
0.034419
0.023112
0.014010
0.009287
0.022699
0.029515
0.034327
0.028048
0.041378
0.025530
0.015147
0.027903
0.016788
0.021695
0.014125
0.024307
0.020211
0.037220
0.019573
0.039272
0.037319
0.039943
0.026425
0.043390
0.030877
0.038817
0.032170
0.018736
0.024697
0.036158
0.010934
0.035458
0.008828
0.007874
0.015869
0.026298
0.030253
0.017815
0.011998
0.018996
0.011421
0.030848
0.024029
0.008965
0.027940
0.028057
0.021828
0.025584
0.022370
0.017311
0.033394
0.024659
0.013743
0.016139
0.020791
0.012539
0.017718
0.013313
0.027653
0.020897
0.022477
0.010298
0.019734
0.010225
0.030036
0.028377
0.026045
0.023565
0.024045
0.015768
0.017720
0.028134
0.019178
0.031436
0.028171
0.031759
0.022030
0.021871
0.018807
0.018130
0.014984
0.016083
0.016137
0.017989
0.012082
0.019574
0.018581
0.008571
0.023910
0.021190
0.023076
0.033153
0.020006
0.033872
0.025814
0.031630
0.009693
0.021719
0.030045
0.017974
0.022533
0.008961
0.011580
0.030736
0.012742
0.008197
0.023180
0.030285
0.023472
0.023806
0.028387
0.029660
0.021918
0.026764
0.017651
0.015057
0.040637
0.033832
0.032721
0.030203
0.030087
0.032252
0.029829
0.030870
0.031192
0.026550
0.011431
0.017010
0.024124
0.038802
0.045377
0.026846
0.032044
0.039127
0.031765
0.030028
0.024867
0.019279
0.018517
0.036311
0.026929
0.019472
0.029465
0.029814
0.012029
0.031263
0.030652
0.022599
0.028161
0.008946
0.012559
0.022491
0.017432
0.037643
0.032456
0.028252
0.032231
0.013536
0.012918
0.010084
0.022883
0.035494
0.010669
0.016427
0.029121
0.032716
0.031655
0.029439
0.011032
0.018734
0.026483
0.014334
0.011866
0.026431
0.027568
0.016407
0.021349
0.026660
0.030428
0.028178
0.033395
0.034875
0.043323
0.037595
0.039786
0.024186
0.034107
0.041586
0.028973
0.018835
0.023130
0.015929
0.010636
0.012189
0.034955
0.016980
0.029207
0.011525
