# vtk DataFile Version 2.0
Unstructured Grid Example
ASCII
DATASET UNSTRUCTURED_GRID
POINTS 1108 float
1.013608 0.017637 -0.002894 
-1.013395 -0.017388 0.002721 
0.017564 0.981761 0.004806 
-0.017556 -0.981639 -0.004853 
-0.002876 0.004679 1.005361 
0.002937 -0.004865 -1.004716 
1.212774 0.011652 -0.001920 
-1.212762 -0.011771 0.001803 
0.011634 1.182760 0.002998 
-0.011879 -1.182602 -0.003165 
-0.001859 0.003118 1.205028 
0.001830 -0.003020 -1.204690 
1.000282 0.211444 -0.001787 
0.947470 0.397855 -0.000866 
0.856714 0.568614 0.000044 
0.731617 0.716826 0.001275 
0.578008 0.835540 0.002382 
0.402919 0.920749 0.003302 
0.213435 0.970080 0.004069 
-0.177799 0.956901 0.005205 
-0.365434 0.895881 0.005510 
-0.539854 0.802080 0.005494 
-0.694332 0.679273 0.005280 
-0.823278 0.530529 0.004958 
-0.922489 0.360770 0.004398 
-0.986914 0.175865 0.003645 
-0.999990 -0.211300 0.001688 
-0.947280 -0.397760 0.000946 
-0.856226 -0.568453 -0.000150 
-0.731171 -0.716873 -0.001348 
-0.577888 -0.835788 -0.002354 
-0.402995 -0.921085 -0.003256 
-0.213592 -0.970024 -0.004177 
0.177645 -0.956798 -0.005331 
0.365319 -0.895987 -0.005592 
0.539734 -0.802033 -0.005625 
0.694070 -0.679261 -0.005374 
0.823266 -0.530506 -0.005014 
0.922294 -0.360571 -0.004525 
0.986838 -0.175633 -0.003814 
-0.006377 -0.188196 0.984104 
-0.009448 -0.373254 0.924423 
-0.012279 -0.543019 0.829158 
-0.014502 -0.691642 0.702608 
-0.016232 -0.813271 0.549931 
-0.017276 -0.904214 0.376643 
-0.017993 -0.961455 0.189708 
-0.016640 -0.965048 -0.199542 
-0.015115 -0.911611 -0.387193 
-0.012880 -0.823091 -0.560482 
-0.010186 -0.702023 -0.712765 
-0.007317 -0.553500 -0.837941 
-0.003934 -0.383257 -0.930593 
-0.000392 -0.198062 -0.986962 
0.006162 0.188430 -0.983687 
0.009337 0.373334 -0.923868 
0.012198 0.543160 -0.829201 
0.014339 0.691819 -0.702779 
0.016041 0.813424 -0.550028 
0.017118 0.904363 -0.376743 
0.017827 0.961463 -0.189767 
0.016527 0.965023 0.199338 
0.015027 0.911520 0.386884 
0.012989 0.822668 0.560479 
0.010252 0.701820 0.712710 
0.007559 0.553411 0.837874 
0.004121 0.383052 0.930859 
0.000486 0.197766 0.987305 
0.992785 0.018074 0.193451 
0.933796 0.018031 0.382352 
0.839316 0.017016 0.556366 
0.712598 0.015672 0.708660 
0.558872 0.013784 0.833798 
0.383988 0.010908 0.927129 
0.194373 0.007672 0.985045 
-0.199935 0.000956 0.987301 
-0.390159 -0.002188 0.931391 
-0.564980 -0.006039 0.839292 
-0.718206 -0.008879 0.714739 
-0.844188 -0.011811 0.562532 
-0.937714 -0.014172 0.388359 
-0.994866 -0.016033 0.199215 
-0.992740 -0.017906 -0.193635 
-0.933859 -0.017997 -0.382536 
-0.839434 -0.016867 -0.556543 
-0.712727 -0.015592 -0.708742 
-0.559169 -0.013509 -0.833613 
-0.383893 -0.010558 -0.926746 
-0.194115 -0.007680 -0.984403 
0.200193 -0.001365 -0.987031 
0.389885 0.002225 -0.931101 
0.564940 0.005894 -0.839114 
0.718417 0.008947 -0.714788 
0.844490 0.011865 -0.562608 
0.937800 0.014441 -0.388474 
0.994866 0.016376 -0.199491 
1.203693 0.199606 -0.001407 
1.163584 0.383575 -0.000777 
1.093195 0.558417 -0.000165 
0.994005 0.718687 0.000420 
0.869557 0.859945 0.000725 
0.723679 0.978557 0.001476 
0.560226 1.071693 0.001924 
0.383755 1.137227 0.002337 
0.199353 1.174320 0.002820 
-0.175121 1.162408 0.003275 
-0.356835 1.114563 0.003690 
-0.528933 1.040748 0.003669 
-0.689258 0.943779 0.003890 
-0.834204 0.824477 0.003498 
-0.959430 0.684327 0.003252 
-1.062466 0.527327 0.003108 
-1.140854 0.356500 0.002772 
-1.191711 0.175338 0.002424 
-1.203360 -0.199425 0.001366 
-1.163337 -0.383210 0.000592 
-1.092929 -0.558313 0.000087 
-0.993665 -0.718285 -0.000444 
-0.869747 -0.859564 -0.000777 
-0.723865 -0.978502 -0.001584 
-0.560338 -1.071905 -0.001953 
-0.383795 -1.137411 -0.002426 
-0.199362 -1.174242 -0.002720 
0.175089 -1.162436 -0.003337 
0.356665 -1.114593 -0.003677 
0.528870 -1.040723 -0.003763 
0.689176 -0.943738 -0.003924 
0.834068 -0.824328 -0.003567 
0.959245 -0.684185 -0.003303 
1.062334 -0.527158 -0.003165 
1.140673 -0.356395 -0.002823 
1.191637 -0.175354 -0.002481 
-0.011281 -1.169961 -0.189804 
-0.010521 -1.128922 -0.372606 
-0.009540 -1.060071 -0.546870 
-0.008556 -0.964810 -0.708122 
-0.006845 -0.845183 -0.852575 
-0.005020 -0.704087 -0.975932 
-0.003470 -0.545240 -1.075215 
-0.001744 -0.372239 -1.147738 
-0.000178 -0.189611 -1.191353 
0.003923 0.183198 -1.187950 
0.005444 0.365401 -1.141712 
0.006954 0.536977 -1.067164 
0.008299 0.695169 -0.966458 
0.009357 0.835528 -0.842925 
0.010796 0.955232 -0.698653 
0.011154 1.051228 -0.538180 
0.011558 1.122438 -0.365363 
0.011822 1.166499 -0.183337 
0.011293 1.170003 0.189889 
0.010540 1.128840 0.372485 
0.009501 1.059434 0.547117 
0.008753 0.964358 0.708076 
0.006972 0.844968 0.852410 
0.004719 0.704055 0.976012 
0.003509 0.545230 1.075216 
0.001828 0.372279 1.147939 
0.000188 0.189772 1.191672 
-0.003765 -0.183788 1.188489 
-0.005437 -0.365233 1.142045 
-0.007097 -0.537141 1.067192 
-0.008362 -0.695138 0.966473 
-0.009340 -0.835424 0.842778 
-0.010882 -0.955109 0.698566 
-0.011234 -1.051059 0.538097 
-0.011645 -1.122345 0.365354 
-0.011885 -1.166473 0.183293 
-1.198677 -0.010968 0.191221 
-1.154812 -0.010240 0.375681 
-1.082048 -0.008913 0.550902 
-0.982648 -0.007867 0.712131 
-0.858749 -0.005894 0.856014 
-0.713672 -0.004175 0.979075 
-0.552027 -0.002560 1.077320 
-0.375691 -0.000683 1.148230 
-0.191004 0.001105 1.191225 
0.187182 0.004940 1.189329 
0.371376 0.006772 1.144768 
0.546570 0.008147 1.072123 
0.708307 0.009034 0.973389 
0.853011 0.010480 0.850713 
0.977015 0.011538 0.707172 
1.077548 0.011701 0.545922 
1.151254 0.012026 0.371436 
1.196673 0.012028 0.187143 
1.198846 0.010951 -0.191260 
1.155026 0.010199 -0.375811 
1.082437 0.008889 -0.550992 
0.982898 0.007727 -0.712243 
0.858796 0.005908 -0.856198 
0.713531 0.004348 -0.979066 
0.551922 0.002433 -1.076977 
0.375982 0.000570 -1.147936 
0.190723 -0.000700 -1.190996 
-0.187211 -0.004774 -1.188825 
-0.371331 -0.007115 -1.144116 
-0.546412 -0.008094 -1.071946 
-0.707981 -0.009454 -0.973465 
-0.853021 -0.010389 -0.850826 
-0.977097 -0.011398 -0.707265 
-1.077656 -0.011562 -0.546013 
-1.151330 -0.011909 -0.371498 
-1.196636 -0.011954 -0.187185 
0.819032 -0.378817 -0.419545 
0.405841 -0.773831 -0.446582 
0.394029 -0.370398 -0.844430 
0.896553 -0.280751 -0.341716 
0.282230 -0.873731 -0.338480 
0.684300 -0.323189 -0.655324 
0.550982 -0.613010 -0.544083 
0.865183 -0.457927 -0.113128 
0.173652 -0.612215 -0.769151 
0.618752 -0.162671 -0.778567 
0.882265 -0.141694 -0.466438 
0.194219 -0.836719 -0.484443 
0.963334 -0.121511 -0.270963 
0.807687 -0.277652 -0.523125 
0.674946 -0.621505 -0.347692 
0.449198 -0.836251 -0.205850 
0.615971 -0.730570 -0.179361 
0.524800 -0.465369 -0.708779 
0.805573 -0.129851 -0.593166 
0.546079 -0.730371 -0.352317 
0.995514 -0.104969 -0.117607 
0.763151 -0.592179 -0.156521 
0.137092 -0.929753 -0.281591 
0.940831 -0.286750 -0.163613 
0.734223 -0.452204 -0.491497 
0.252436 -0.927227 -0.156790 
0.552518 -0.291652 -0.785834 
0.325614 -0.691225 -0.629868 
0.831104 -0.448107 -0.294581 
0.503285 -0.175046 -0.855279 
0.137612 -0.747815 -0.639897 
0.191374 -0.476061 -0.861086 
0.176361 -0.316197 -0.938142 
0.346951 -0.546341 -0.758314 
0.636165 -0.466547 -0.605267 
0.107650 -0.963541 -0.129788 
0.442859 -0.588283 -0.665760 
0.332117 -0.212643 -0.926409 
0.208090 -0.132455 -0.976419 
0.520741 0.584350 -0.641976 
0.526006 0.785153 -0.359780 
0.830359 0.383170 -0.461164 
0.415953 0.467632 -0.790775 
0.370569 0.880342 -0.300340 
0.302311 0.310759 -0.908210 
0.177480 0.160098 -0.976521 
0.778910 0.225750 -0.618062 
0.694334 0.544433 -0.512536 
0.524864 0.848298 -0.169475 
0.615624 0.181975 -0.786254 
0.201397 0.865554 -0.438208 
0.181503 0.467731 -0.864563 
0.577596 0.686677 -0.473870 
0.170182 0.940495 -0.252135 
0.399812 0.140754 -0.916838 
0.133144 0.316337 -0.940811 
0.649158 0.708857 -0.337963 
0.129371 0.614625 -0.769863 
0.184376 0.744081 -0.630734 
0.317529 0.619397 -0.720625 
0.881918 0.499310 -0.173786 
0.627330 0.398685 -0.694237 
0.395500 0.762542 -0.519300 
0.785012 0.564049 -0.340483 
0.143773 0.971441 -0.106764 
0.308871 0.938951 -0.136868 
0.732447 0.699372 -0.148985 
0.965356 0.161651 -0.290802 
0.487403 0.307478 -0.832138 
0.878525 0.422577 -0.321245 
0.895182 0.183090 -0.456314 
0.961928 0.307640 -0.180769 
0.917539 0.297044 -0.346508 
1.001085 0.144596 -0.135566 
0.745737 0.392681 -0.577065 
0.473436 0.468151 0.765944 
0.472071 0.809053 0.388452 
0.852271 0.426659 0.376172 
0.339715 0.321217 0.896188 
0.322323 0.902571 0.300914 
0.926650 0.353439 0.257453 
0.980190 0.185740 0.210162 
0.569617 0.640957 0.550292 
0.116008 0.482094 0.877296 
0.764263 0.181418 0.640588 
0.448048 0.170555 0.887528 
0.449352 0.885089 0.187150 
0.888699 0.487525 0.169758 
0.264484 0.148960 0.960229 
0.272596 0.949774 0.146314 
0.960279 0.338337 0.123809 
0.621580 0.172733 0.777912 
0.525154 0.302135 0.811759 
0.331298 0.632402 0.716279 
0.799968 0.633108 0.116241 
0.692368 0.732905 0.173122 
0.604730 0.505322 0.645853 
0.206569 0.751948 0.634445 
0.782217 0.590644 0.301957 
0.650664 0.694838 0.371737 
0.406056 0.723657 0.581025 
0.573761 0.809194 0.226636 
0.127878 0.973242 0.127953 
0.112851 0.128743 0.991849 
0.480927 0.602226 0.662048 
0.161282 0.613236 0.782201 
0.722203 0.519493 0.504119 
0.656264 0.362646 0.687294 
0.162475 0.313437 0.944682 
0.182768 0.940264 0.272947 
0.800751 0.334346 0.536499 
0.852497 0.156857 0.526346 
0.232331 0.860953 0.458325 
0.903194 0.249412 0.401636 
0.265716 0.480817 0.847986 
0.495224 -0.758415 0.333608 
0.322280 -0.356816 0.864589 
0.309966 -0.845896 0.351181 
0.139714 -0.451394 0.869561 
0.512222 -0.143650 0.843309 
0.408934 -0.855008 0.180514 
0.595847 -0.522321 0.569559 
0.263209 -0.163348 0.949045 
0.209852 -0.930574 0.172508 
0.910309 -0.351316 0.158223 
0.763279 -0.378069 0.492220 
0.725710 -0.632097 0.134958 
0.870634 -0.168984 0.455973 
0.959661 -0.161498 0.231509 
0.501348 -0.304703 0.796307 
0.552381 -0.649215 0.461964 
0.595391 -0.744707 0.155759 
0.695093 -0.609824 0.296965 
[...]
POINT_DATA 1108
SCALARS u float 1
LOOKUP_TABLE default
0.022463
0.022117
0.025773
0.025863
0.007675
0.007385
0.017397
0.017455
0.021013
0.021303
0.006202
0.005871
0.025510
0.028061
0.028416
0.026398
0.022928
0.020741
0.021626
0.029942
0.033344
0.033778
0.031077
0.026810
0.022394
0.020505
0.025188
0.027853
0.027908
0.026005
0.022853
0.020760
0.021808
0.030136
0.033328
0.033896
0.031212
0.026845
0.022626
0.020731
0.009961
0.013359
0.017710
0.021672
0.025029
0.026864
0.026952
0.023332
0.019983
0.016131
0.012713
0.009985
0.007802
0.006866
0.009526
0.013214
0.017549
0.021402
0.024773
0.026631
0.026823
0.023230
0.019905
0.016441
0.012824
0.010140
0.008113
0.007064
0.021757
0.020581
0.018755
0.016679
0.014364
0.011456
0.008804
0.008175
0.010820
0.013645
0.016133
0.018701
0.020603
0.021733
0.021579
0.020579
0.018678
0.016654
0.014143
0.011007
0.008546
0.008180
0.010439
0.013452
0.016339
0.018970
0.020877
0.022041
0.022006
0.025716
0.027589
0.026754
0.023939
0.019957
0.015754
0.013751
0.016192
0.026271
0.030370
0.032785
0.031703
0.028211
0.024124
0.018974
0.014593
0.014187
0.021626
0.025316
0.027305
0.026260
0.023930
0.020114
0.015902
0.013752
0.016234
0.026269
0.030421
0.032847
0.031784
0.028416
0.024342
0.019186
0.014711
0.014150
0.019095
0.016318
0.013373
0.010819
0.008627
0.007274
0.006952
0.006850
0.006415
0.006578
0.007695
0.010656
0.013835
0.016969
0.020107
0.022167
0.022758
0.022576
0.019078
0.016381
0.013828
0.011218
0.008738
0.007133
0.006972
0.007069
0.006767
0.006348
0.007835
0.010626
0.013891
0.017089
0.020277
0.022368
0.022882
0.022639
0.017705
0.017661
0.016784
0.015743
0.013973
0.012448
0.011169
0.008524
0.006927
0.006445
0.007643
0.008834
0.009849
0.011606
0.013223
0.014414
0.015644
0.016614
0.017831
0.017839
0.017103
0.015912
0.014112
0.012408
0.010824
0.008451
0.006541
0.006000
0.007680
0.008698
0.010166
0.011550
0.013154
0.014372
0.015606
0.016534
0.018535
0.023035
0.009596
0.018736
0.025449
0.014206
0.019128
0.023861
0.011579
0.012821
0.017960
0.020384
0.019972
0.016572
0.024292
0.030458
0.030151
0.013301
0.016362
0.025990
0.020709
0.026786
0.024769
0.020564
0.018376
0.029302
0.011507
0.016709
0.021381
0.011019
0.015047
0.008598
0.007027
0.012243
0.015717
0.027142
0.015188
0.008323
0.007377
0.019050
0.021194
0.024868
0.015742
0.020634
0.012217
0.009359
0.020921
0.022991
0.021850
0.016534
0.021809
0.014426
0.021487
0.023335
0.011824
0.011663
0.023617
0.017682
0.019829
0.016734
0.028361
0.019577
0.019286
0.026061
0.023479
0.021138
0.026150
0.024031
0.015255
0.026750
0.023199
0.027028
0.025684
0.024530
0.022698
0.016385
0.020351
0.025563
0.012194
0.019116
0.026035
0.024242
0.020935
0.010425
0.019042
0.012716
0.020653
0.027935
0.009526
0.020149
0.027002
0.015971
0.015244
0.015154
0.027438
0.025373
0.020218
0.014597
0.026128
0.023939
0.017869
0.022734
0.022114
0.007863
0.018173
0.012290
0.023409
0.019257
0.009238
0.019714
0.022422
0.020475
0.017231
0.023067
0.012280
0.035035
0.017704
0.033955
0.017428
0.014912
0.035328
0.027904
0.011947
0.032664
0.023442
0.024363
0.031047
0.020156
0.020972
0.018830
0.032026
0.034568
0.031402
0.009177
0.012734
0.028370
0.030514
0.032281
0.027048
0.029635
0.018794
0.032021
0.024527
0.028817
0.026516
0.022296
0.028511
0.022966
0.022417
0.016820
0.014557
0.022867
0.029242
0.019166
0.021195
0.024229
0.015752
0.020672
0.012539
0.009587
0.020783
0.022889
0.021843
0.016656
0.021982
0.014443
0.021215
0.023402
0.012072
0.011649
0.023356
0.017803
0.020010
0.016963
0.027960
0.019574
0.019488
0.026136
0.023627
0.021170
0.025694
0.023663
0.015361
0.026433
0.022736
0.026566
0.025119
0.024262
0.022457
0.016240
0.020385
0.025530
0.011778
0.018859
0.026050
0.024108
0.020765
0.010143
0.019132
0.012324
0.020588
0.027417
0.009303
0.020261
0.026818
0.016064
0.015208
0.015200
0.027072
0.024901
0.019973
0.014682
0.026222
0.023794
0.017817
0.022669
0.022180
0.007525
0.018151
0.012168
0.023112
0.019175
0.008971
0.019576
0.022361
0.020550
0.017159
0.023342
0.012358
0.034753
0.017447
0.033615
0.016956
0.014793
0.035108
0.027610
0.011515
0.032471
0.023231
0.024160
0.030870
0.020009
0.020799
0.018622
0.031721
0.034406
0.031088
0.008758
0.012429
0.028035
0.030189
0.032005
0.026872
0.029262
0.018625
0.031666
0.024102
0.028561
0.026291
0.022070
0.028209
0.022746
0.022117
0.016774
0.014303
0.022660
0.029103
0.018463
0.023348
0.009759
0.018589
0.025810
0.014174
0.019245
0.023721
0.011763
0.012846
0.017726
0.020807
0.019756
0.016460
0.024207
0.030431
0.029682
0.013421
0.016232
0.025697
0.020424
0.026775
0.024712
0.020320
0.018334
0.029242
0.011580
0.016995
0.021337
0.011173
0.015279
0.008822
0.007160
0.012509
0.015764
0.026916
0.015446
0.008452
0.007494
0.029034
0.022722
0.014187
0.016620
0.032493
0.014229
0.030572
0.010250
0.013788
0.029059
0.006738
0.014437
0.024555
0.019742
0.012830
0.026076
0.009829
0.015177
0.032994
0.025098
0.023338
0.034211
0.013325
0.027212
0.012610
0.026789
0.016822
0.032659
0.014109
0.026969
0.017984
0.018600
0.023035
0.026711
0.022055
0.032299
0.019863
0.011790
0.021740
0.013829
0.017405
0.011080
0.018911
0.015777
0.029014
0.015220
0.030604
0.029069
0.031273
0.020574
0.033916
0.024080
0.030293
0.025212
0.014722
0.028223
0.019501
0.012080
0.027682
0.008682
0.008514
0.007676
0.020843
0.015566
0.010225
0.013727
0.025414
0.014946
0.024342
0.008989
0.015463
0.023699
0.007186
0.018857
0.012360
0.010642
0.015915
0.020047
0.013220
0.010013
0.024830
0.017534
0.017595
0.026601
0.017866
0.021355
0.008511
0.018271
0.013981
0.026527
0.018721
0.020984
0.013313
0.012078
0.016827
0.018922
0.014562
0.024004
0.013558
0.015598
0.017205
0.009742
0.015703
0.012968
0.015488
0.012796
0.022150
0.013913
0.023743
0.021771
0.025226
0.014995
0.026751
0.015790
0.021732
0.020491
0.018694
0.012990
0.020732
0.012016
0.022123
0.010639
0.007470
0.008662
0.018615
0.018472
0.013404
0.010669
0.022485
0.009260
0.022812
0.012698
0.007468
0.019150
0.015004
0.024127
0.011297
0.011350
0.026943
0.009177
0.017962
0.010932
0.020128
0.015236
0.011469
0.016888
0.025879
0.008609
0.011882
0.019558
0.009334
0.018795
0.022839
0.007504
0.016593
0.014533
0.020839
0.021376
0.017089
0.023358
0.013729
0.025376
0.008588
0.012699
0.020360
0.010049
0.022417
0.011963
0.025339
0.011337
0.024918
0.016483
0.013031
0.011984
0.020542
0.021841
0.016806
0.019910
0.006402
0.014509
0.023811
0.015708
0.013983
0.014315
0.014161
0.013426
0.009776
0.016641
0.023757
0.006947
0.012384
0.006577
0.012828
0.007485
0.014814
0.009928
0.023076
0.014379
0.026544
0.006830
0.019871
0.014936
0.029815
0.010528
0.008235
0.009825
0.012660
0.006365
0.014509
0.029018
0.012786
0.008308
0.013847
0.006650
0.013450
0.020607
0.019989
0.027632
0.014719
0.021623
0.016714
0.012505
0.013034
0.006729
0.007717
0.024913
0.018389
0.025754
0.010921
0.028377
0.007467
0.017971
0.005856
0.014367
0.009763
0.012308
0.007818
0.011646
0.009213
0.013056
0.015199
0.006704
0.017417
0.009572
0.025450
0.011760
0.023288
0.022847
0.022092
0.017151
0.011185
0.024233
0.013523
0.022766
0.012714
0.022682
0.013930
0.011691
0.016977
0.014268
0.011092
0.010741
0.017205
0.008596
0.011396
0.019378
0.024827
0.026547
0.018397
0.012644
0.018841
0.009854
0.019928
0.025698
0.013923
0.014958
0.019204
0.014219
0.008637
0.007349
0.016668
0.014071
0.017006
0.019235
0.015727
0.023435
0.009477
0.014065
0.013303
0.011003
0.012784
0.008760
0.020022
0.012680
0.021866
0.012631
0.022851
0.024986
0.025812
0.016035
0.018543
0.021682
0.016833
0.019727
0.020348
0.015278
0.008747
0.022470
0.007179
0.005931
0.009822
0.016530
0.021771
0.006965
0.012468
0.006578
0.012924
0.024602
0.007372
0.014899
0.024100
0.009756
0.023182
0.014119
0.006796
0.020025
0.014326
0.030098
0.010610
0.008261
0.009763
0.012754
0.006345
0.014699
0.019078
0.012708
0.008152
0.013954
0.006518
0.013505
0.020663
0.014404
0.020781
0.016457
0.012275
0.013071
0.006662
0.007740
0.025415
0.017656
0.025659
0.010794
0.028308
0.007317
0.017977
0.005852
0.014476
0.009834
0.012427
0.007769
0.011722
0.009108
0.013019
0.015202
0.006370
0.009314
0.017225
0.026453
0.011838
0.019251
0.029388
0.027941
0.029325
0.023015
0.013009
0.016813
0.032763
0.014393
0.030777
0.013866
0.029165
0.014417
0.024806
0.012910
0.019977
0.012962
0.026363
0.010000
0.014859
0.033233
0.025384
0.023539
0.034391
0.013407
0.027464
0.009245
0.027071
0.017024
0.032826
0.014140
0.027092
0.018192
0.011027
0.007310
0.017867
0.023232
0.027019
0.022077
0.032569
0.020095
0.011923
0.021963
0.013214
0.017077
0.011118
0.019132
0.015908
0.029296
0.015406
0.030912
0.029375
0.031440
0.020800
0.034153
0.024304
0.030554
0.025322
0.014748
0.019440
0.028461
0.008606
0.027910
0.006949
0.006197
0.012491
0.020699
0.023813
0.014022
0.009444
0.014952
0.008989
0.024281
0.018914
0.007057
0.021992
0.022084
0.017181
0.020138
0.017608
0.013626
0.026285
0.019409
0.010818
0.012703
0.016365
0.009870
0.013947
0.010479
0.021766
0.016449
0.017692
0.008106
0.015533
0.008048
0.023642
0.022336
0.020501
0.018549
0.018926
0.012411
0.013947
0.022145
0.015095
0.024744
0.022174
0.024998
0.017340
0.017215
0.014803
0.014270
0.011794
0.012659
0.012702
0.014160
0.009510
0.015407
0.014625
0.006747
0.018820
0.016679
0.018163
0.026095
0.015748
0.026661
0.020319
0.024897
0.007629
0.017095
0.023649
0.014148
0.017736
0.007054
0.009115
0.024193
0.010029
0.006452
0.018246
0.023838
0.018475
0.018738
0.022344
0.023346
0.017252
0.021067
0.013894
0.011852
0.031986
0.026630
0.025755
0.023774
0.023682
0.025386
0.023479
0.024298
0.024552
0.020898
0.008997
0.013389
0.018989
0.030542
0.035717
0.021131
0.025222
0.030798
0.025003
0.023636
0.019573
0.015175
0.014575
0.028581
0.021196
0.015327
0.023192
0.023467
0.009468
0.024607
0.024127
0.017788
0.022166
0.007042
0.009885
0.017703
0.013721
0.029629
0.025547
0.022238
0.025370
0.010654
0.010168
0.007937
0.018011
0.027938
0.008398
0.012930
0.022922
0.025752
0.024916
0.023172
0.008684
0.014746
0.020846
0.011283
0.009340
0.020804
0.021700
0.012914
0.016804
0.020985
0.023950
0.022179
0.026286
0.027451
0.034100
0.029592
0.031316
0.019038
0.026847
0.032733
0.022805
0.014826
0.018206
0.012538
0.008372
0.009594
0.027514
0.013365
0.022989
0.009071
