# vtk DataFile Version 2.0
Unstructured Grid Example
ASCII
DATASET UNSTRUCTURED_GRID
POINTS 1108 float
0.982102 0.012790 0.005053 
-0.982110 -0.012757 -0.004958 
0.012460 1.017679 -0.017183 
-0.012746 -1.018013 0.017237 
0.005116 -0.016965 1.000093 
-0.005029 0.017219 -1.000210 
1.183144 0.008598 0.003293 
-1.182865 -0.008261 -0.003558 
0.008576 1.216714 -0.011408 
-0.008176 -1.217102 0.011277 
0.003501 -0.011384 1.200029 
-0.003609 0.011374 -1.200236 
0.968387 0.209134 0.001722 
0.917794 0.398643 -0.001926 
0.831360 0.574091 -0.005128 
0.711923 0.728793 -0.008391 
0.563836 0.855167 -0.011904 
0.393227 0.947456 -0.014039 
0.206727 1.002346 -0.015912 
-0.181177 0.992893 -0.017813 
-0.366331 0.929565 -0.017833 
-0.536283 0.830905 -0.017041 
-0.685094 0.701790 -0.015600 
-0.807410 0.546974 -0.013709 
-0.899768 0.372102 -0.011043 
-0.958850 0.183401 -0.008092 
-0.968537 -0.209122 -0.001755 
-0.918041 -0.398599 0.001765 
-0.831491 -0.573966 0.005078 
-0.711910 -0.728533 0.008323 
-0.563793 -0.855305 0.011444 
-0.393196 -0.947907 0.013786 
-0.206823 -1.002717 0.015891 
0.181088 -0.993038 0.017812 
0.366285 -0.929840 0.017953 
0.536330 -0.831079 0.017174 
0.684953 -0.701695 0.015873 
0.807523 -0.546888 0.013914 
0.899889 -0.371967 0.011265 
0.959207 -0.183336 0.008239 
0.002526 -0.214463 0.987683 
-0.000148 -0.405570 0.937043 
-0.003075 -0.581632 0.849376 
-0.005127 -0.735999 0.727260 
-0.007528 -0.861283 0.576736 
-0.009557 -0.952017 0.403046 
-0.011323 -1.004432 0.213762 
-0.013476 -0.991462 -0.178688 
-0.013700 -0.927322 -0.366359 
-0.013476 -0.828565 -0.539457 
-0.012535 -0.699546 -0.691359 
-0.011379 -0.544772 -0.816841 
-0.009457 -0.369587 -0.912453 
-0.007450 -0.179935 -0.974557 
-0.002499 0.214598 -0.987829 
0.000170 0.405619 -0.936947 
0.002766 0.581706 -0.849366 
0.005225 0.735877 -0.727583 
0.007584 0.861077 -0.576796 
0.009621 0.951778 -0.403020 
0.011295 1.004292 -0.213768 
0.013314 0.991291 0.178734 
0.013372 0.926911 0.366639 
0.012970 0.828526 0.539471 
0.012306 0.699530 0.691658 
0.010816 0.544916 0.817174 
0.009545 0.369802 0.912500 
0.007553 0.180081 0.974508 
0.965542 0.008861 0.199277 
0.912012 0.004979 0.386387 
0.823433 0.000636 0.558655 
0.701960 -0.002961 0.710043 
0.553525 -0.007235 0.834632 
0.383454 -0.011051 0.926492 
0.197990 -0.014277 0.982475 
-0.187573 -0.018944 0.978504 
-0.372727 -0.020564 0.919545 
-0.542303 -0.020953 0.824997 
-0.691016 -0.020764 0.699505 
-0.813291 -0.019986 0.547639 
-0.904474 -0.018054 0.375477 
-0.961594 -0.015657 0.189061 
-0.965474 -0.008846 -0.199164 
-0.911894 -0.004926 -0.386223 
-0.823029 -0.001117 -0.558552 
-0.701725 0.002722 -0.710281 
-0.553091 0.006864 -0.834615 
-0.383344 0.011166 -0.926322 
-0.197865 0.014487 -0.982300 
0.188046 0.018919 -0.979114 
0.372806 0.020644 -0.919990 
0.542252 0.021203 -0.825273 
0.690837 0.021040 -0.699488 
0.812956 0.020208 -0.547504 
0.904466 0.018287 -0.375273 
0.961698 0.015693 -0.188806 
1.173004 0.196222 0.001372 
1.134608 0.380664 -0.000320 
1.067882 0.556986 -0.002033 
0.974263 0.720457 -0.003781 
0.855791 0.866398 -0.005631 
0.714784 0.991726 -0.007703 
0.554815 1.092253 -0.008487 
0.380367 1.163879 -0.009970 
0.196429 1.205823 -0.010657 
-0.179112 1.197411 -0.011692 
-0.360894 1.147737 -0.011905 
-0.532367 1.069829 -0.011745 
-0.689853 0.966754 -0.011401 
-0.829933 0.841433 -0.010601 
-0.949153 0.696112 -0.009396 
-1.045929 0.534661 -0.007925 
-1.118117 0.361711 -0.006940 
-1.164110 0.179283 -0.005247 
-1.173124 -0.196159 -0.001428 
-1.134641 -0.380819 0.000470 
-1.068079 -0.556952 0.002196 
-0.974231 -0.720540 0.003849 
-0.855608 -0.866369 0.005667 
-0.714704 -0.991778 0.007640 
-0.554902 -1.092428 0.008482 
-0.380477 -1.164441 0.009944 
-0.196601 -1.206223 0.010708 
0.179131 -1.197485 0.011825 
0.360944 -1.147902 0.011942 
0.532487 -1.069953 0.011712 
0.689967 -0.966789 0.011338 
0.829871 -0.841232 0.010591 
0.949134 -0.695926 0.009474 
1.046020 -0.534534 0.008033 
1.118273 -0.361611 0.007019 
1.164397 -0.179064 0.005249 
-0.008865 -1.196077 -0.177464 
-0.008974 -1.145783 -0.360283 
-0.009039 -1.067931 -0.532908 
-0.008990 -0.965307 -0.692057 
-0.008294 -0.840055 -0.834736 
-0.007296 -0.695035 -0.956769 
-0.006781 -0.534230 -1.055984 
-0.005853 -0.360394 -1.130977 
-0.004722 -0.177253 -1.179576 
-0.001681 0.200835 -1.191459 
-0.000695 0.386791 -1.153076 
0.001069 0.564422 -1.086002 
0.002073 0.728721 -0.990610 
0.003965 0.874564 -0.869434 
0.004820 0.999164 -0.725738 
0.005928 1.098092 -0.563441 
0.006864 1.167607 -0.386714 
0.007694 1.207675 -0.200997 
0.008738 1.195747 0.177533 
0.008998 1.145315 0.360271 
0.009408 1.067947 0.532659 
0.008790 0.965451 0.691981 
0.008160 0.840274 0.834812 
0.007615 0.694968 0.957028 
0.006623 0.534002 1.056409 
0.005808 0.360238 1.131042 
0.004638 0.177209 1.179593 
0.001911 -0.200970 1.191165 
0.000553 -0.386771 1.153206 
-0.000741 -0.564477 1.086052 
-0.001769 -0.728627 0.989969 
-0.003902 -0.874635 0.869217 
-0.004860 -0.999246 0.725799 
-0.005891 -1.098298 0.563531 
-0.006807 -1.167803 0.386709 
-0.007686 -1.207871 0.200982 
-1.166791 -0.010059 0.182645 
-1.122336 -0.011252 0.364165 
-1.051092 -0.012626 0.536951 
-0.954368 -0.013565 0.696914 
-0.834465 -0.014068 0.840328 
-0.693908 -0.013943 0.963070 
-0.535919 -0.013869 1.063068 
-0.364011 -0.013363 1.137121 
-0.182871 -0.012681 1.183481 
0.189978 -0.009873 1.186725 
0.371765 -0.007954 1.143875 
0.544717 -0.006138 1.071977 
0.703800 -0.004232 0.972733 
0.844870 -0.002554 0.850387 
0.964425 0.000012 0.707124 
1.060435 0.002226 0.546187 
1.129162 0.004599 0.371971 
1.170581 0.006321 0.189794 
1.166818 0.010199 -0.182736 
1.122315 0.011493 -0.364242 
1.050796 0.012750 -0.536918 
0.954154 0.013673 -0.696797 
0.834369 0.014150 -0.840265 
0.693954 0.013940 -0.963119 
0.536081 0.013784 -1.063359 
0.364397 0.013416 -1.137740 
0.182529 0.012602 -1.183587 
-0.190036 0.009677 -1.186644 
-0.371687 0.007926 -1.143681 
-0.544545 0.006024 -1.071965 
-0.703511 0.004898 -0.973361 
-0.844585 0.002294 -0.850412 
-0.964205 -0.000134 -0.706852 
-1.060216 -0.002145 -0.545898 
-1.129062 -0.004651 -0.371917 
-1.170464 -0.006258 -0.189875 
0.792077 -0.379175 -0.399239 
0.396206 -0.782592 -0.423487 
0.376892 -0.358913 -0.821989 
0.867054 -0.281489 -0.323716 
0.278410 -0.891055 -0.316368 
0.658682 -0.316333 -0.632890 
0.534039 -0.614113 -0.520165 
0.844013 -0.468859 -0.094610 
0.165343 -0.606457 -0.745892 
0.594562 -0.151305 -0.758695 
0.850640 -0.137686 -0.449223 
0.189741 -0.846297 -0.462093 
0.930852 -0.122333 -0.256416 
0.778909 -0.274031 -0.502827 
0.657892 -0.629263 -0.325162 
0.443916 -0.858293 -0.183380 
0.605781 -0.748673 -0.157156 
0.504948 -0.458636 -0.684206 
0.775656 -0.122570 -0.574436 
0.534199 -0.741376 -0.329370 
0.964253 -0.108891 -0.105658 
0.746779 -0.605759 -0.136044 
0.137330 -0.951732 -0.260176 
0.913101 -0.292742 -0.147488 
0.709805 -0.451744 -0.468975 
0.252616 -0.955466 -0.134495 
0.530346 -0.281072 -0.763489 
0.314734 -0.691259 -0.606037 
0.807328 -0.453075 -0.274448 
0.482251 -0.161717 -0.835834 
0.132091 -0.748656 -0.617389 
0.181027 -0.465450 -0.838936 
0.165132 -0.301664 -0.919246 
0.332977 -0.539766 -0.734023 
0.614047 -0.462553 -0.581688 
0.110434 -0.994422 -0.108067 
0.427048 -0.584753 -0.641339 
0.316202 -0.197194 -0.908365 
0.195346 -0.114765 -0.963126 
0.504982 0.612762 -0.652068 
0.512749 0.815594 -0.374928 
0.802698 0.395946 -0.458500 
0.400953 0.496522 -0.799460 
0.360771 0.916994 -0.319856 
0.288537 0.337567 -0.912516 
0.165974 0.184200 -0.976228 
0.751124 0.239052 -0.610016 
0.673303 0.565215 -0.517218 
0.512204 0.875407 -0.185023 
0.592528 0.199221 -0.778372 
0.193018 0.909625 -0.461873 
0.170350 0.501555 -0.878614 
0.562101 0.714554 -0.485453 
0.162804 0.983059 -0.275308 
0.382925 0.161732 -0.911281 
0.122715 0.345582 -0.949021 
0.631784 0.732145 -0.348350 
0.119462 0.654417 -0.790763 
0.174819 0.786725 -0.653508 
0.305897 0.655486 -0.737412 
0.854588 0.506703 -0.175905 
0.606318 0.419845 -0.695012 
0.384096 0.799498 -0.537759 
0.761450 0.579510 -0.344343 
0.137377 1.009607 -0.128647 
0.300384 0.974023 -0.156565 
0.712504 0.715142 -0.157999 
0.932155 0.164929 -0.282108 
0.469325 0.330318 -0.832276 
0.850027 0.432156 -0.319906 
0.863015 0.190959 -0.446472 
0.930058 0.310460 -0.177252 
0.886152 0.304027 -0.340854 
0.967824 0.143912 -0.128313 
0.721019 0.409270 -0.575571 
0.464399 0.457609 0.752221 
0.460723 0.815931 0.372705 
0.829028 0.421016 0.369470 
0.336253 0.305933 0.883859 
0.313984 0.918142 0.283355 
0.899984 0.348641 0.254129 
0.951904 0.178531 0.211765 
0.555996 0.637896 0.536110 
0.117258 0.471434 0.858080 
0.748550 0.167177 0.636935 
0.443670 0.152652 0.881287 
0.438664 0.902243 0.170882 
0.862574 0.486925 0.164546 
0.264946 0.130255 0.952665 
0.265165 0.974301 0.127852 
0.930960 0.335365 0.122645 
0.611397 0.156399 0.773185 
0.516586 0.287948 0.801954 
0.325175 0.627080 0.698826 
0.777469 0.638523 0.108037 
0.674147 0.741172 0.161698 
0.591066 0.497149 0.633524 
0.202842 0.751953 0.615667 
0.760893 0.590480 0.292548 
0.633997 0.696717 0.359148 
0.396939 0.723299 0.564189 
0.559613 0.820287 0.212329 
0.122699 1.001996 0.107853 
0.117360 0.109367 0.983292 
0.470585 0.596252 0.646936 
0.160245 0.606623 0.762972 
0.704157 0.513233 0.493748 
0.642568 0.350964 0.678083 
0.163914 0.298291 0.930218 
0.177340 0.960365 0.253938 
0.781520 0.324067 0.529757 
0.833349 0.143340 0.525109 
0.227095 0.870166 0.439558 
0.879801 0.240302 0.399421 
0.263145 0.469789 0.831160 
0.498808 -0.799154 0.359055 
0.327276 -0.390188 0.880399 
0.316324 -0.891999 0.378357 
0.147478 -0.487914 0.887905 
0.510810 -0.169238 0.850268 
0.412162 -0.894971 0.205634 
0.597333 -0.557173 0.590565 
0.267006 -0.190078 0.955303 
0.215189 -0.974304 0.197800 
0.891972 -0.367270 0.172989 
0.756858 -0.404360 0.507759 
0.718017 -0.657248 0.155520 
0.856020 -0.187746 0.464657 
0.937531 -0.174794 0.241135 
0.502676 -0.335216 0.810320 
0.555208 -0.687828 0.486231 
0.593417 -0.777403 0.178779 
0.691381 -0.640442 0.318029 
[...]
POINT_DATA 1108
SCALARS u float 1
LOOKUP_TABLE default
0.022571
0.022525
0.027623
0.028001
0.017719
0.017939
0.019206
0.019352
0.021978
0.022057
0.011910
0.011935
0.018812
0.017189
0.019217
0.023747
0.027778
0.029396
0.029214
0.025641
0.024854
0.025743
0.027499
0.028994
0.028553
0.026139
0.018708
0.017045
0.019084
0.023483
0.027689
0.029629
0.029516
0.025758
0.025035
0.025793
0.027786
0.029025
0.028588
0.025917
0.020719
0.026402
0.031769
0.035598
0.037329
0.036024
0.032187
0.023762
0.021587
0.021206
0.021501
0.021449
0.019787
0.017999
0.020891
0.026397
0.031796
0.035697
0.037211
0.035839
0.032078
0.023562
0.021105
0.020882
0.021155
0.020854
0.019661
0.017937
0.018121
0.013392
0.008631
0.006624
0.008157
0.011382
0.014666
0.020508
0.023255
0.025631
0.027347
0.028157
0.027467
0.025491
0.018146
0.013433
0.009021
0.006815
0.007947
0.011449
0.014828
0.020257
0.023213
0.025794
0.027666
0.028569
0.027680
0.025497
0.014951
0.011889
0.012437
0.015957
0.020095
0.024198
0.026526
0.026492
0.024772
0.018955
0.016796
0.017106
0.019658
0.022550
0.025357
0.026595
0.025828
0.023337
0.014822
0.012004
0.012411
0.016045
0.020013
0.024191
0.026709
0.027002
0.025187
0.019076
0.016858
0.017001
0.019525
0.022660
0.025470
0.026597
0.025746
0.023159
0.017365
0.014559
0.014983
0.016962
0.018188
0.018892
0.018230
0.015775
0.012799
0.014616
0.019874
0.025858
0.030700
0.033625
0.035250
0.034890
0.031520
0.027192
0.017054
0.014444
0.015403
0.016871
0.017968
0.018864
0.018001
0.015820
0.012797
0.014644
0.019931
0.025921
0.030199
0.033538
0.035357
0.035103
0.031669
0.027345
0.021606
0.023007
0.023431
0.022928
0.021515
0.019626
0.017570
0.015560
0.013688
0.010238
0.008424
0.006734
0.004893
0.004833
0.006639
0.009159
0.013001
0.016085
0.021627
0.023121
0.023739
0.023189
0.021656
0.019579
0.017321
0.015288
0.013728
0.010050
0.008330
0.006629
0.005814
0.004935
0.006787
0.009310
0.013108
0.016177
0.035616
0.030730
0.029958
0.033680
0.026015
0.034793
0.034918
0.031883
0.027077
0.030080
0.031806
0.025854
0.029777
0.034623
0.034903
0.027790
0.030646
0.034543
0.031729
0.032597
0.026948
0.032018
0.023556
0.031151
0.036773
0.024566
0.031874
0.030779
0.034910
0.028153
0.025611
0.026225
0.023632
0.031254
0.036140
0.024516
0.033598
0.025266
0.021525
0.032616
0.035335
0.024096
0.030294
0.036694
0.025942
0.021486
0.024915
0.028813
0.032868
0.024765
0.038502
0.030528
0.033901
0.035853
0.023463
0.025184
0.031691
0.034930
0.037859
0.035378
0.021073
0.027030
0.038059
0.026340
0.031712
0.033528
0.026709
0.023501
0.025844
0.022593
0.024657
0.020040
0.022379
0.021811
0.025445
0.007667
0.016788
0.009805
0.010235
0.020540
0.012317
0.014980
0.010272
0.017501
0.004272
0.007788
0.023381
0.014661
0.012037
0.025267
0.015113
0.003919
0.005305
0.012626
0.018613
0.019986
0.006409
0.016045
0.013664
0.014328
0.012888
0.020814
0.025472
0.015270
0.009458
0.016820
0.007781
0.003292
0.014815
0.021896
0.005194
0.007387
0.017927
0.009606
0.013500
0.024135
0.021853
0.028447
0.027349
0.012959
0.025127
0.019630
0.017102
0.028239
0.024355
0.016445
0.024732
0.014102
0.019950
0.017278
0.022467
0.023890
0.021812
0.018085
0.022147
0.033579
0.033477
0.027669
0.025165
0.024536
0.011356
0.031163
0.022564
0.019114
0.020844
0.015962
0.029103
0.031731
0.027222
0.011488
0.015819
0.019053
0.028529
0.032351
0.035372
0.023923
0.029987
0.037061
0.025710
0.021940
0.024492
0.028409
0.032931
0.024497
0.038745
0.030284
0.033305
0.035974
0.023338
0.025258
0.031530
0.034785
0.037678
0.035039
0.021137
0.026681
0.037630
0.025992
0.032014
0.033659
0.026323
0.023418
0.025452
0.022330
0.024314
0.020167
0.022345
0.021696
0.025163
0.008076
0.017227
0.009955
0.010215
0.020752
0.011816
0.014878
0.010664
0.017619
0.004672
0.007694
0.023636
0.014798
0.012129
0.025632
0.014972
0.004027
0.005384
0.012849
0.018403
0.019727
0.006581
0.016625
0.013807
0.014765
0.013084
0.021124
0.025701
0.015486
0.009890
0.017057
0.008422
0.003454
0.015079
0.022162
0.005873
0.007673
0.018120
0.009531
0.013245
0.024153
0.022044
0.028400
0.027648
0.012980
0.025062
0.019662
0.017348
0.028118
0.024329
0.016521
0.024581
0.014409
0.020108
0.017203
0.022242
0.023989
0.021502
0.018248
0.022325
0.033571
0.033420
0.027714
0.025146
0.024571
0.011454
0.031156
0.022773
0.019094
0.020797
0.016005
0.029088
0.032033
0.027122
0.011483
0.015899
0.019247
0.028379
0.035275
0.030292
0.029797
0.033396
0.025951
0.034371
0.034505
0.031865
0.026520
0.029776
0.031447
0.025347
0.029750
0.034169
0.034457
0.027459
0.029953
0.034175
0.031278
0.031858
0.027090
0.031843
0.023372
0.031044
0.036317
0.024346
0.031611
0.030321
0.034781
0.028043
0.025168
0.025866
0.023521
0.030835
0.035702
0.024206
0.033164
0.025364
0.021663
0.013970
0.016721
0.018828
0.017069
0.021077
0.018343
0.023118
0.016446
0.021855
0.020615
0.013755
0.008373
0.028497
0.026357
0.009607
0.031618
0.008373
0.027165
0.015562
0.014999
0.020989
0.016199
0.013940
0.029202
0.022209
0.014963
0.022094
0.017841
0.017583
0.026300
0.017266
0.012810
0.022941
0.019483
0.013333
0.021002
0.012688
0.006867
0.032895
0.010752
0.023629
0.006923
0.030453
0.009841
0.027069
0.013532
0.025551
0.016450
0.018076
0.018043
0.017570
0.012272
0.017646
0.022877
0.020123
0.023150
0.010830
0.013603
0.020840
0.010932
0.019045
0.011127
0.027463
0.026279
0.022966
0.034319
0.014558
0.033528
0.015209
0.018673
0.029492
0.015029
0.015375
0.016599
0.035741
0.031183
0.037022
0.018114
0.016102
0.029230
0.021473
0.031864
0.028880
0.016604
0.035118
0.018683
0.024029
0.027522
0.031366
0.013518
0.031056
0.018492
0.023270
0.030826
0.020650
0.023137
0.030787
0.017049
0.035591
0.035899
0.018868
0.027676
0.017247
0.033730
0.017522
0.037227
0.016022
0.037119
0.015516
0.026813
0.021456
0.033119
0.015671
0.032323
0.022316
0.018014
0.026948
0.034882
0.018758
0.018094
0.024803
0.015615
0.020025
0.014717
0.002642
0.007929
0.013211
0.007665
0.007108
0.009460
0.009669
0.016849
0.008783
0.012595
0.019530
0.013157
0.011277
0.010919
0.011299
0.013809
0.021028
0.012832
0.004185
0.003420
0.004217
0.005887
0.009728
0.013435
0.012921
0.004681
0.006631
0.009045
0.012251
0.011440
0.011158
0.009147
0.010647
0.007227
0.006512
0.005772
0.006967
0.015930
0.015229
0.011008
0.015068
0.014040
0.018878
0.010110
0.008658
0.009728
0.007817
0.002864
0.003025
0.005649
0.005759
0.005493
0.004848
0.015433
0.010534
0.007797
0.008175
0.016477
0.004086
0.021430
0.014618
0.022335
0.032972
0.032052
0.021432
0.023468
0.031197
0.020025
0.029581
0.015854
0.025493
0.026195
0.030332
0.024213
0.026858
0.023153
0.030443
0.019238
0.021672
0.032528
0.029564
0.023612
0.028728
0.020273
0.029556
0.018711
0.033866
0.019824
0.028151
0.016106
0.026879
0.026978
0.017187
0.016241
0.028819
0.030727
0.033992
0.031778
0.034183
0.028834
0.021747
0.027294
0.023400
0.024877
0.021333
0.025114
0.027431
0.033451
0.024600
0.033016
0.028838
0.027168
0.025123
0.031484
0.032027
0.034589
0.023204
0.013532
0.034094
0.030016
0.016676
0.024209
0.015606
0.017669
0.010669
0.005215
0.008484
0.008162
0.016805
0.009733
0.017515
0.012291
0.021959
0.010927
0.002498
0.003319
0.011760
0.012504
0.005789
0.014768
0.004223
0.014838
0.010070
0.011636
0.020743
0.013924
0.009430
0.006032
0.006590
0.009789
0.021907
0.017336
0.012576
0.006694
0.012490
0.008096
0.003129
0.008501
0.006393
0.004367
0.011747
0.005589
0.014269
0.004271
0.005036
0.010890
0.003062
0.015149
0.004201
0.010246
0.006525
0.013369
0.015379
0.015689
0.008680
0.017744
0.009212
0.005949
0.020646
0.015377
0.003383
0.009283
0.008945
0.019672
0.010421
0.010648
0.033328
0.032523
0.022844
0.023384
0.031425
0.019916
0.029659
0.017957
0.015654
0.025461
0.016222
0.026657
0.030877
0.024553
0.023568
0.030575
0.019808
0.021345
0.032917
0.029752
0.023601
0.029057
0.020320
0.029620
0.018560
0.034280
0.019604
0.028300
0.016002
0.026794
0.027737
0.029314
0.031831
0.034546
0.032216
0.034483
0.029012
0.022117
0.027743
0.024097
0.028271
0.021627
0.025201
0.027825
0.033679
0.024743
0.033147
0.029109
0.027477
0.025091
0.031816
0.032352
0.035031
0.023120
0.013492
0.030414
0.034592
0.022842
0.024371
0.015388
0.017928
0.016294
0.014116
0.016634
0.017049
0.016849
0.021151
0.018190
0.023228
0.021648
0.020706
0.008331
0.028552
0.010068
0.026282
0.009406
0.031699
0.008788
0.026425
0.015597
0.014992
0.020969
0.016136
0.013782
0.029297
0.011546
0.015029
0.022044
0.017883
0.017430
0.026411
0.018071
0.020692
0.011213
0.012429
0.023095
0.019501
0.013302
0.021068
0.012588
0.006991
0.032927
0.012999
0.022780
0.007218
0.030368
0.009755
0.027131
0.013276
0.025627
0.016511
0.017950
0.017965
0.017612
0.012281
0.017806
0.023007
0.019987
0.010741
0.023220
0.014709
0.020937
0.014851
0.012662
0.032818
0.022604
0.015042
0.036069
0.020510
0.033985
0.017732
0.014842
0.031213
0.016748
0.016896
0.026434
0.016726
0.016463
0.029374
0.016118
0.016339
0.018463
0.030681
0.036425
0.037043
0.028843
0.031622
0.015554
0.017046
0.028052
0.035497
0.022448
0.029913
0.014161
0.018187
0.023652
0.018068
0.022932
0.027540
0.022751
0.035219
0.024673
0.017845
0.020749
0.015832
0.020882
0.018440
0.031693
0.017773
0.034272
0.017964
0.035646
0.033601
0.037180
0.025503
0.032797
0.026686
0.013632
0.027217
0.020456
0.030139
0.015639
0.035797
0.013248
0.019373
0.013311
0.015956
0.030737
0.014288
0.020544
0.028179
0.021549
0.022728
0.026851
0.014076
0.016932
0.023955
0.037771
0.017604
0.002661
0.022448
0.023138
0.032227
0.002566
0.030508
0.012822
0.029847
0.033269
0.027812
0.034830
0.018510
0.023557
0.029117
0.023703
0.020305
0.017037
0.016439
0.020200
0.025570
0.024923
0.027924
0.020599
0.016773
0.027892
0.018739
0.026792
0.029744
0.010115
0.021986
0.016552
0.021593
0.008958
0.027511
0.027253
0.016482
0.032366
0.036699
0.013376
0.004347
0.022958
0.024864
0.035965
0.031124
0.034377
0.023367
0.031054
0.023572
0.029742
0.032755
0.025471
0.037851
0.020151
0.017921
0.011697
0.027649
0.018217
0.011424
0.015965
0.017934
0.011047
0.021314
0.020109
0.018661
0.003743
0.009777
0.021963
0.028030
0.023595
0.024357
0.011766
0.019574
0.021328
0.028255
0.026384
0.029040
0.031352
0.029189
0.030627
0.029639
0.029926
0.035239
0.026381
0.023908
0.027422
0.027424
0.015958
0.018459
0.008795
