# vtk DataFile Version 2.0
Unstructured Grid Example
ASCII
DATASET UNSTRUCTURED_GRID
POINTS 1108 float
0.999503 -0.000190 0.004692 
-0.999503 0.000185 -0.004647 
-0.000244 0.997278 0.000717 
0.000210 -0.997217 -0.000745 
0.004617 0.000722 1.003252 
-0.004597 -0.000748 -1.003225 
1.199525 -0.000132 0.003109 
-1.199533 0.000084 -0.003111 
-0.000173 1.197364 0.000486 
0.000159 -1.197402 -0.000527 
0.003084 0.000487 1.203060 
-0.003100 -0.000505 -1.203077 
0.980225 0.194529 0.004718 
0.923215 0.381672 0.004594 
0.830670 0.554080 0.004257 
0.706227 0.705191 0.003826 
0.554722 0.829149 0.003107 
0.382005 0.921259 0.002403 
0.194631 0.978020 0.001605 
-0.195106 0.978270 -0.000122 
-0.382448 0.921624 -0.001045 
-0.555235 0.829569 -0.001988 
-0.706667 0.705648 -0.002809 
-0.830930 0.554548 -0.003422 
-0.923447 0.382112 -0.004046 
-0.980325 0.194893 -0.004414 
-0.980222 -0.194567 -0.004679 
-0.923277 -0.381708 -0.004555 
-0.830789 -0.554133 -0.004226 
-0.706339 -0.705223 -0.003793 
-0.554781 -0.829147 -0.003148 
-0.382033 -0.921254 -0.002467 
-0.194634 -0.978037 -0.001594 
0.195040 -0.978195 0.000124 
0.382437 -0.921530 0.001033 
0.555215 -0.829534 0.002038 
0.706676 -0.705641 0.002797 
0.830937 -0.554536 0.003427 
0.923465 -0.382122 0.004056 
0.980322 -0.194908 0.004426 
0.004552 -0.194192 0.983631 
0.004348 -0.381529 0.926123 
0.003924 -0.554013 0.832970 
0.003396 -0.705109 0.707872 
0.002762 -0.828982 0.555826 
0.001925 -0.921105 0.382466 
0.001072 -0.977871 0.194563 
-0.000695 -0.978416 -0.196011 
-0.001569 -0.922120 -0.383981 
-0.002410 -0.830384 -0.557389 
-0.003108 -0.706664 -0.709478 
-0.003684 -0.555625 -0.834375 
-0.004175 -0.383061 -0.927181 
-0.004450 -0.195683 -0.984186 
-0.004546 0.194204 -0.983621 
-0.004299 0.381534 -0.926039 
-0.003958 0.554003 -0.832959 
-0.003416 0.705119 -0.707911 
-0.002754 0.829005 -0.555851 
-0.001957 0.921111 -0.382494 
-0.001113 0.977875 -0.194579 
0.000657 0.978413 0.195997 
0.001587 0.922094 0.384043 
0.002411 0.830398 0.557374 
0.003133 0.706644 0.709457 
0.003718 0.555612 0.834402 
0.004189 0.383036 0.927128 
0.004480 0.195656 0.984152 
0.982120 -0.000046 0.200186 
0.926919 0.000114 0.388484 
0.835876 0.000222 0.561977 
0.712200 0.000337 0.713952 
0.560879 0.000509 0.838278 
0.387864 0.000593 0.930002 
0.199943 0.000654 0.985618 
-0.190532 0.000719 0.982191 
-0.377974 0.000788 0.923418 
-0.550737 0.000689 0.829417 
-0.702221 0.000643 0.704085 
-0.826879 0.000603 0.551813 
-0.920261 0.000421 0.378568 
-0.978534 0.000315 0.190730 
-0.982126 0.000036 -0.200150 
-0.926881 -0.000111 -0.388442 
-0.835792 -0.000208 -0.561958 
-0.712143 -0.000335 -0.713928 
-0.560839 -0.000470 -0.838349 
-0.387867 -0.000580 -0.930011 
-0.199932 -0.000667 -0.985612 
0.190571 -0.000762 -0.982192 
0.377994 -0.000787 -0.923434 
0.550786 -0.000717 -0.829442 
0.702256 -0.000657 -0.704081 
0.826875 -0.000596 -0.551821 
0.920256 -0.000453 -0.378542 
0.978578 -0.000337 -0.190720 
1.184693 0.187356 0.003119 
1.140614 0.370190 0.003105 
1.068373 0.543878 0.002955 
0.969916 0.704075 0.002823 
0.847587 0.846835 0.002575 
0.704392 0.968811 0.002137 
0.543953 1.066862 0.001816 
0.370179 1.138676 0.001385 
0.187328 1.182563 0.001016 
-0.187661 1.182732 -0.000042 
-0.370505 1.139047 -0.000598 
-0.544327 1.067233 -0.000946 
-0.704734 0.969250 -0.001346 
-0.847982 0.847258 -0.001775 
-0.970338 0.704364 -0.002277 
-1.068662 0.544188 -0.002521 
-1.140853 0.370434 -0.002757 
-1.184814 0.187570 -0.002959 
-1.184711 -0.187354 -0.003133 
-1.140674 -0.370213 -0.003098 
-1.068468 -0.543909 -0.002961 
-0.970009 -0.704133 -0.002801 
-0.847591 -0.846876 -0.002497 
-0.704396 -0.968850 -0.002127 
-0.543978 -1.066858 -0.001795 
-0.370193 -1.138690 -0.001393 
-0.187332 -1.182549 -0.001021 
0.187623 -1.182713 0.000032 
0.370471 -1.138970 0.000581 
0.544276 -1.067197 0.000960 
0.704703 -0.969221 0.001376 
0.847960 -0.847277 0.001796 
0.970330 -0.704377 0.002322 
1.068663 -0.544200 0.002535 
1.140858 -0.370447 0.002759 
1.184810 -0.187595 0.002973 
-0.000403 -1.182919 -0.188291 
-0.000820 -1.139462 -0.371468 
-0.001293 -1.068031 -0.545722 
-0.001638 -0.970270 -0.706735 
-0.002091 -0.848515 -0.850365 
-0.002497 -0.705769 -0.973213 
-0.002674 -0.545374 -1.072105 
-0.002860 -0.371442 -1.144480 
-0.003020 -0.188274 -1.188474 
-0.003050 0.187248 -1.187987 
-0.002969 0.370332 -1.143461 
-0.002819 0.544051 -1.070804 
-0.002600 0.704239 -0.971754 
-0.002289 0.847002 -0.848981 
-0.001848 0.968884 -0.705236 
-0.001509 1.066800 -0.544447 
-0.001170 1.138508 -0.370418 
-0.000623 1.182443 -0.187222 
0.000425 1.182960 0.188314 
0.000813 1.139428 0.371503 
0.001198 1.068098 0.545612 
0.001629 0.970287 0.706735 
0.002091 0.848496 0.850374 
0.002542 0.705765 0.973153 
0.002696 0.545364 1.072090 
0.002884 0.371438 1.144438 
0.003033 0.188289 1.188461 
0.003082 -0.187275 1.187981 
0.002970 -0.370307 1.143516 
0.002816 -0.544082 1.070814 
0.002610 -0.704259 0.971705 
0.002275 -0.847009 0.848944 
0.001838 -0.968869 0.705206 
0.001502 -1.066780 0.544429 
0.001161 -1.138503 0.370392 
0.000611 -1.182432 0.187171 
-1.183178 0.000203 0.184754 
-1.137963 0.000224 0.367636 
-1.065023 0.000341 0.541363 
-0.966344 0.000337 0.701807 
-0.844210 0.000479 0.845354 
-0.701238 0.000480 0.968297 
-0.541182 0.000489 1.067561 
-0.367644 0.000474 1.141088 
-0.184768 0.000506 1.186652 
0.191158 0.000437 1.189814 
0.374777 0.000432 1.147023 
0.549406 0.000378 1.075731 
0.710437 0.000303 0.977460 
0.853599 0.000252 0.854726 
0.975609 0.000208 0.710967 
1.073286 0.000088 0.549659 
1.144031 0.000004 0.374883 
1.186372 -0.000056 0.191099 
1.183192 -0.000218 -0.184705 
1.137937 -0.000286 -0.367651 
1.064999 -0.000346 -0.541363 
0.966375 -0.000364 -0.701823 
0.844201 -0.000467 -0.845376 
0.701229 -0.000451 -0.968311 
0.541193 -0.000482 -1.067588 
0.367687 -0.000492 -1.141078 
0.184767 -0.000494 -1.186678 
-0.191131 -0.000428 -1.189785 
-0.374731 -0.000422 -1.147024 
-0.549408 -0.000397 -1.075772 
-0.710417 -0.000377 -0.977375 
-0.853572 -0.000249 -0.854690 
-0.975556 -0.000198 -0.710925 
-1.073215 -0.000075 -0.549618 
-1.143999 0.000003 -0.374867 
-1.186373 0.000049 -0.191089 
0.815418 -0.395827 -0.411589 
0.414886 -0.791778 -0.442291 
0.389988 -0.377249 -0.837597 
0.889936 -0.297927 -0.333156 
0.294876 -0.892360 -0.334501 
0.677870 -0.335392 -0.646900 
0.554582 -0.628983 -0.538345 
0.868778 -0.479820 -0.105030 
0.177382 -0.619056 -0.765174 
0.608291 -0.171583 -0.769084 
0.869781 -0.156297 -0.456793 
0.204589 -0.850605 -0.481068 
0.951232 -0.138376 -0.261909 
0.799904 -0.292257 -0.514305 
0.681036 -0.642250 -0.341229 
0.463014 -0.860170 -0.200533 
0.627686 -0.755452 -0.172705 
0.522999 -0.476504 -0.701927 
0.792804 -0.142340 -0.583052 
0.555318 -0.751499 -0.346994 
0.984446 -0.122821 -0.109196 
0.770561 -0.615585 -0.149093 
0.151631 -0.946219 -0.278053 
0.936640 -0.306132 -0.155161 
0.732694 -0.468712 -0.484109 
0.268138 -0.948649 -0.152053 
0.545506 -0.300445 -0.777542 
0.331055 -0.703816 -0.625579 
0.831700 -0.467656 -0.286758 
0.493863 -0.181614 -0.846423 
0.144909 -0.756932 -0.636571 
0.191360 -0.480471 -0.856363 
0.172904 -0.318259 -0.933127 
0.347896 -0.555675 -0.752877 
0.634655 -0.480302 -0.598372 
0.124164 -0.981730 -0.125657 
0.444919 -0.600613 -0.660235 
0.325011 -0.216077 -0.919455 
0.200635 -0.133334 -0.971102 
0.497889 0.580552 -0.636157 
0.501975 0.781668 -0.356957 
0.804437 0.370883 -0.451385 
0.396300 0.466683 -0.785577 
0.348718 0.883016 -0.300447 
0.286575 0.311709 -0.903740 
0.165733 0.162628 -0.973087 
0.756916 0.215032 -0.607184 
0.668767 0.535427 -0.504573 
0.501297 0.844289 -0.168081 
0.597114 0.175024 -0.776209 
0.181334 0.875014 -0.440806 
0.164911 0.473264 -0.863956 
0.552850 0.681181 -0.468594 
0.150416 0.951379 -0.255366 
0.385411 0.138309 -0.909362 
0.119356 0.321500 -0.939708 
0.623285 0.700590 -0.332983 
0.111713 0.623351 -0.771963 
0.164948 0.752763 -0.632778 
0.297834 0.622521 -0.718803 
0.854685 0.484468 -0.167084 
0.604699 0.391753 -0.685217 
0.373427 0.763779 -0.517641 
0.757802 0.551891 -0.333063 
0.124864 0.982819 -0.110075 
0.288227 0.943842 -0.138344 
0.705959 0.688215 -0.144898 
0.943968 0.146169 -0.281409 
0.468818 0.303862 -0.824157 
0.851846 0.408550 -0.312629 
0.872532 0.169549 -0.445641 
0.937384 0.291657 -0.172830 
0.892630 0.282547 -0.336939 
0.981142 0.127919 -0.127401 
0.721012 0.382643 -0.567164 
0.465559 0.460671 0.764704 
0.454557 0.804236 0.386614 
0.834343 0.411936 0.377651 
0.337615 0.314778 0.894922 
0.304984 0.903840 0.298737 
0.907555 0.337586 0.260672 
0.964475 0.168437 0.215397 
0.554660 0.632598 0.548699 
0.112659 0.481343 0.873912 
0.757464 0.167131 0.643473 
0.447853 0.161036 0.888680 
0.429512 0.882647 0.185739 
0.865747 0.472099 0.172677 
0.266730 0.142420 0.960144 
0.254245 0.954336 0.144213 
0.939059 0.321747 0.128388 
0.618550 0.160412 0.780432 
0.520786 0.292648 0.811983 
0.321866 0.629286 0.713813 
0.775489 0.619799 0.118419 
0.669387 0.722289 0.173779 
0.592724 0.495355 0.644914 
0.196214 0.753116 0.631877 
0.761341 0.577442 0.302751 
0.631257 0.684745 0.370990 
0.392752 0.719593 0.578651 
0.552829 0.802143 0.225809 
0.110587 0.983690 0.124858 
0.117083 0.124248 0.990263 
0.469444 0.595309 0.660227 
0.154567 0.613237 0.779211 
0.706477 0.507225 0.503931 
0.647211 0.350973 0.687793 
0.162363 0.310187 0.942302 
0.166476 0.946948 0.270345 
0.788174 0.320372 0.537768 
0.844313 0.141032 0.530127 
0.218317 0.863762 0.455658 
0.889684 0.233620 0.405021 
0.260915 0.477545 0.845525 
0.513428 -0.786728 0.344512 
0.334131 -0.372155 0.872151 
0.328932 -0.871936 0.360861 
0.153737 -0.464552 0.875361 
0.518513 -0.158156 0.849734 
0.427266 -0.882726 0.189430 
0.610379 -0.546515 0.581345 
0.271561 -0.174112 0.952843 
0.228457 -0.954566 0.179785 
0.913906 -0.373699 0.167146 
0.772757 -0.400873 0.502720 
0.738472 -0.658892 0.144424 
0.872141 -0.188748 0.464033 
0.956676 -0.181575 0.239509 
0.511656 -0.322117 0.805147 
0.569027 -0.675903 0.473777 
0.611518 -0.773307 0.165387 
0.709578 -0.636773 0.307699 
[...]
POINT_DATA 1108
SCALARS u float 1
LOOKUP_TABLE default
0.004722
0.004678
0.002825
0.002889
0.005693
0.005665
0.003148
0.003147
0.002686
0.002656
0.004372
0.004397
0.004784
0.004750
0.004581
0.004368
0.003970
0.003619
0.003230
0.002518
0.002497
0.002771
0.003195
0.003612
0.004109
0.004442
0.004742
0.004697
0.004515
0.004304
0.003991
0.003661
0.003209
0.002594
0.002579
0.002833
0.003187
0.003619
0.004115
0.004454
0.005443
0.005027
0.004480
0.004014
0.003726
0.003384
0.003149
0.002635
0.002691
0.003208
0.003935
0.004692
0.005336
0.005632
0.005430
0.004946
0.004510
0.004034
0.003706
0.003396
0.003158
0.002623
0.002749
0.003196
0.003944
0.004735
0.005313
0.005633
0.005268
0.006550
0.007779
0.008539
0.008649
0.008042
0.006880
0.004824
0.004797
0.005296
0.005781
0.005962
0.005496
0.004918
0.005234
0.006495
0.007716
0.008486
0.008678
0.008050
0.006869
0.004794
0.004776
0.005246
0.005755
0.005960
0.005521
0.004908
0.003186
0.003235
0.003203
0.003223
0.003223
0.003084
0.003082
0.003008
0.002878
0.002495
0.002321
0.002238
0.002156
0.002250
0.002525
0.002649
0.002814
0.002992
0.003197
0.003212
0.003177
0.003157
0.003137
0.003050
0.003066
0.002996
0.002891
0.002515
0.002396
0.002287
0.002204
0.002261
0.002562
0.002659
0.002814
0.003005
0.002410
0.002086
0.001982
0.002219
0.002783
0.003484
0.003986
0.004346
0.004470
0.004141
0.003724
0.003323
0.002975
0.002788
0.002679
0.002862
0.003025
0.002895
0.002381
0.002124
0.001829
0.002209
0.002790
0.003475
0.003988
0.004330
0.004471
0.004158
0.003760
0.003318
0.002961
0.002767
0.002684
0.002878
0.003030
0.002913
0.003611
0.004595
0.005418
0.005714
0.005381
0.004842
0.003995
0.003216
0.003319
0.005749
0.006998
0.008001
0.008374
0.008012
0.007390
0.006353
0.004913
0.003567
0.003645
0.004606
0.005438
0.005682
0.005374
0.004839
0.003973
0.003177
0.003329
0.005709
0.006972
0.008037
0.008298
0.007967
0.007323
0.006276
0.004883
0.003558
0.004813
0.003045
0.004213
0.004827
0.002670
0.005028
0.003870
0.003881
0.003729
0.005182
0.005470
0.002839
0.004956
0.005255
0.003908
0.002852
0.003269
0.004224
0.005703
0.003373
0.004588
0.003640
0.002580
0.004372
0.004711
0.002531
0.004756
0.003286
0.004336
0.004768
0.003278
0.004147
0.004549
0.003704
0.004549
0.002593
0.003705
0.004450
0.004690
0.005494
0.004968
0.005980
0.005129
0.004379
0.004796
0.004845
0.006104
0.005803
0.004399
0.005672
0.004108
0.004547
0.005482
0.003703
0.004950
0.004782
0.005230
0.004317
0.004266
0.004798
0.005054
0.005898
0.004919
0.005578
0.003317
0.003765
0.004768
0.005344
0.005375
0.005553
0.005949
0.005058
0.005636
0.004871
0.006052
0.007396
0.004165
0.006093
0.007515
0.003232
0.005527
0.005467
0.005850
0.005615
0.008157
0.008299
0.003485
0.004918
0.007397
0.003092
0.004978
0.008705
0.008247
0.005794
0.004462
0.004259
0.007049
0.004461
0.005110
0.004956
0.005104
0.003896
0.002771
0.006403
0.006353
0.005175
0.006441
0.007920
0.006484
0.002846
0.007338
0.007587
0.003474
0.006591
0.006499
0.003431
0.006596
0.003013
0.005308
0.008176
0.002721
0.005851
0.007022
0.002699
0.004514
0.006394
0.003544
0.006832
0.005348
0.007452
0.004475
0.003143
0.004253
0.006211
0.005949
0.003711
0.003148
0.003846
0.004030
0.005011
0.007903
0.003297
0.006123
0.005342
0.004932
0.007205
0.004575
0.004488
0.005466
0.008268
0.007616
0.005623
0.002776
0.005532
0.005001
0.005910
0.005196
0.004431
0.004790
0.004823
0.006072
0.005837
0.004446
0.005746
0.004110
0.004576
0.005398
0.003668
0.004970
0.004781
0.005225
0.004293
0.004261
0.004804
0.004958
0.005927
0.004930
0.005543
0.003316
0.003788
0.004727
0.005299
0.005375
0.005564
0.005924
0.004991
0.005598
0.004855
0.006090
0.007259
0.004118
0.005985
0.007523
0.003261
0.005487
0.005438
0.005866
0.005591
0.008149
0.008289
0.003504
0.004873
0.007368
0.003076
0.004935
0.008613
0.008229
0.005712
0.004393
0.004275
0.007017
0.004347
0.005085
0.004948
0.005084
0.003915
0.002801
0.006408
0.006213
0.005165
0.006401
0.007849
0.006505
0.002896
0.007271
0.007508
0.003495
0.006582
0.006496
0.003403
0.006580
0.003003
0.005316
0.008223
0.002687
0.005832
0.007021
0.002662
0.004507
0.006353
0.003536
0.006797
0.005315
0.007418
0.004488
0.003089
0.004227
0.006172
0.005913
0.003690
0.003155
0.003852
0.004034
0.005000
0.007878
0.003302
0.006109
0.005300
0.004871
0.007171
0.004531
0.004478
0.005433
0.008250
0.007633
0.005572
0.002740
0.004815
0.003044
0.004244
0.004849
0.002684
0.005030
0.003866
0.003888
0.003735
0.005207
0.005480
0.002751
0.004925
0.005253
0.003895
0.002811
0.003181
0.004232
0.005709
0.003349
0.004568
0.003625
0.002581
0.004380
0.004709
0.002492
0.004781
0.003330
0.004329
0.004802
0.003298
0.004171
0.004567
0.003739
0.004545
0.002561
0.003740
0.004468
0.004702
0.003501
0.005326
0.005618
0.003997
0.002071
0.003949
0.002209
0.005962
0.003177
0.002478
0.005382
0.007255
0.002936
0.003920
0.006675
0.002379
0.007941
0.003716
0.002382
0.003587
0.002751
0.001981
0.005186
0.002573
0.004684
0.004532
0.003124
0.002198
0.003906
0.002634
0.005935
0.006404
0.004319
0.004200
0.005506
0.002347
0.004940
0.007667
0.002551
0.007298
0.004758
0.008084
0.002958
0.006272
0.002417
0.005208
0.002151
0.002647
0.002045
0.003460
0.002005
0.004842
0.003356
0.002667
0.003219
0.003167
0.006132
0.006912
0.002252
0.007298
0.004482
0.006539
0.005176
0.005231
0.003845
0.003990
0.004786
0.003690
0.004424
0.003290
0.003262
0.003569
0.003291
0.005816
0.003881
0.003579
0.003506
0.005820
0.004685
0.003092
0.004977
0.004657
0.003834
0.003963
0.003488
0.005088
0.003189
0.005421
0.003622
0.003865
0.003264
0.004071
0.004648
0.004431
0.005420
0.005690
0.005058
0.005478
0.004589
0.003145
0.005726
0.003755
0.005199
0.003137
0.005440
0.004207
0.005875
0.004129
0.005425
0.004442
0.003870
0.004234
0.004662
0.005063
0.005651
0.003391
0.002932
0.004703
0.005903
0.004254
0.003737
0.003702
0.003296
0.003145
0.007036
0.004544
0.002411
0.007028
0.004980
0.006454
0.004232
0.002231
0.006285
0.004034
0.002445
0.003232
0.004425
0.003273
0.003212
0.004852
0.002654
0.002421
0.006709
0.007879
0.008271
0.006968
0.003384
0.005352
0.002163
0.005881
0.007436
0.005408
0.003384
0.005443
0.003229
0.004295
0.003812
0.004902
0.005394
0.005313
0.007006
0.002920
0.003793
0.002829
0.002872
0.003072
0.002796
0.005720
0.003951
0.006267
0.004182
0.007711
0.008256
0.007728
0.006095
0.005753
0.006657
0.003315
0.005264
0.005731
0.004542
0.002457
0.007860
0.002590
0.002029
0.002612
0.004434
0.003351
0.002515
0.003040
0.004353
0.002987
0.003903
0.003183
0.003838
0.002457
0.003302
0.002372
0.002978
0.002833
0.003149
0.001988
0.002600
0.004992
0.004025
0.004237
0.005352
0.003271
0.003174
0.002502
0.003873
0.003250
0.004740
0.003594
0.003244
0.002835
0.002164
0.002384
0.002848
0.003351
0.003886
0.003302
0.004455
0.003199
0.002630
0.002670
0.002356
0.002798
0.002179
0.002643
0.002662
0.003754
0.002786
0.003915
0.004865
0.005369
0.003579
0.004899
0.003622
0.004400
0.003236
0.003720
0.003894
0.002971
0.002385
0.004983
0.002353
0.002419
0.003993
0.006242
0.006885
0.004366
0.002221
0.004218
0.002285
0.003354
0.002635
0.003889
0.007691
0.008049
0.004966
0.002590
0.006825
0.004738
0.008249
0.002940
0.003869
0.003211
0.002633
0.002092
0.005336
0.007658
0.005259
0.003424
0.002498
0.002330
0.004017
0.006800
0.005734
0.006640
0.007350
0.005443
0.005152
0.006319
0.002988
0.005323
0.002951
0.007801
0.007702
0.005841
0.008273
0.003774
0.006634
0.003189
0.005530
0.002279
0.002927
0.002897
0.003909
0.002456
0.004183
0.005335
0.002610
0.003307
0.006649
0.004141
0.006711
0.002777
0.005814
0.005203
0.004425
0.003333
0.002500
0.003012
0.004346
0.002974
0.003905
0.002445
0.003174
0.003855
0.002471
0.002420
0.003306
0.002292
0.002834
0.003172
0.001973
0.002621
0.004990
0.003997
0.004204
0.005345
0.003265
0.003174
0.002175
0.003869
0.003221
0.004753
0.003593
0.003247
0.002926
0.002766
0.003419
0.003902
0.003259
0.004454
0.003160
0.002640
0.002733
0.002308
0.003114
0.002158
0.002686
0.002627
0.003756
0.002761
0.003929
0.004846
0.005351
0.003540
0.004894
0.003598
0.004402
0.003249
0.003719
0.002916
0.003914
0.002739
0.004964
0.002174
0.002468
0.002431
0.003494
0.005326
0.006070
0.004021
0.002083
0.003969
0.002236
0.003189
0.002514
0.007296
0.002939
0.007553
0.003911
0.006714
0.002378
0.007873
0.003712
0.002403
0.003613
0.002762
0.002006
0.005232
0.002577
0.007201
0.004526
0.003130
0.002227
0.003924
0.002657
0.005859
0.004780
0.006447
0.006616
0.004363
0.004201
0.005561
0.002340
0.004986
0.007704
0.002543
0.007000
0.004761
0.008094
0.002941
0.006316
0.002412
0.005258
0.002144
0.002675
0.002076
0.003472
0.002021
0.004878
0.003340
0.002691
0.003236
0.006216
0.003175
0.006146
0.002270
0.005341
0.004986
0.004676
0.005515
0.005299
0.004002
0.003437
0.003688
0.003213
0.004577
0.003247
0.003402
0.003770
0.004606
0.005712
0.005837
0.003896
0.004774
0.003727
0.005759
0.003961
0.004290
0.003456
0.003136
0.003624
0.003542
0.005280
0.005395
0.003503
0.003149
0.003280
0.003178
0.005563
0.005329
0.005889
0.005649
0.005286
0.004405
0.004612
0.003701
0.005354
0.004703
0.005758
0.003739
0.005832
0.004554
0.005022
0.004257
0.004023
0.003809
0.003181
0.003990
0.003401
0.005057
0.005140
0.003600
0.002946
0.005412
0.004954
0.004679
0.003129
0.003813
0.004672
0.003542
0.004121
0.004223
0.006582
0.004642
0.005069
0.005796
0.005669
0.002102
0.001091
0.004207
0.003931
0.004771
0.004228
0.006941
0.004028
0.004337
0.004660
0.007061
0.005375
0.000973
0.002722
0.003372
0.003241
0.004079
0.006550
0.005566
0.006235
0.005416
0.005798
0.004733
0.007019
0.006759
0.006100
0.005822
0.003781
0.007162
0.007027
0.002722
0.005553
0.002473
0.005379
0.008063
0.004452
0.005723
0.004697
0.007704
0.003262
0.003292
0.006958
0.003546
0.004165
0.006443
0.007762
0.005378
0.005225
0.004760
0.005164
0.003771
0.005261
0.006162
0.005264
0.005312
0.004591
0.004943
0.005081
0.005312
0.006698
0.007932
0.004092
0.005576
0.006597
0.006711
0.006724
0.007490
0.004542
0.005456
0.006176
0.007443
0.006680
0.006370
0.005859
0.006803
0.006422
0.007888
0.007040
0.005695
0.002977
0.003277
0.002584
0.004234
0.003032
0.002947
0.005132
0.005787
0.004890
0.005049
0.005398
0.005553
0.002655
0.002035
0.005267
0.001586
