# vtk DataFile Version 2.0
Unstructured Grid Example
ASCII
DATASET UNSTRUCTURED_GRID
POINTS 1108 float
0.998047 -0.000747 0.018432 
-0.998047 0.000725 -0.018258 
-0.000957 0.989306 0.002815 
0.000827 -0.989065 -0.002926 
0.018138 0.002835 1.012775 
-0.018060 -0.002939 -1.012672 
1.198136 -0.000520 0.012214 
-1.198166 0.000331 -0.012224 
-0.000678 1.189642 0.001910 
0.000624 -1.189794 -0.002072 
0.012115 0.001913 1.212023 
-0.012178 -0.001984 -1.212088 
0.978584 0.192887 0.018537 
0.921271 0.378709 0.018047 
0.828330 0.549715 0.016725 
0.703652 0.699580 0.015032 
0.552239 0.822353 0.012207 
0.380018 0.913586 0.009440 
0.193285 0.969922 0.006306 
-0.195151 0.970905 -0.000478 
-0.381760 0.915020 -0.004106 
-0.554255 0.824003 -0.007812 
-0.705381 0.701374 -0.011035 
-0.829351 0.551555 -0.013445 
-0.922181 0.380439 -0.015895 
-0.978977 0.194315 -0.017341 
-0.978573 -0.193036 -0.018383 
-0.921510 -0.378853 -0.017897 
-0.828797 -0.549925 -0.016603 
-0.704092 -0.699705 -0.014901 
-0.552469 -0.822345 -0.012367 
-0.380130 -0.913566 -0.009692 
-0.193298 -0.969990 -0.006263 
0.194891 -0.970607 0.000488 
0.381714 -0.914648 0.004056 
0.554174 -0.823865 0.008006 
0.705414 -0.701346 0.010988 
0.829379 -0.551508 0.013462 
0.922252 -0.380476 0.015933 
0.978967 -0.194372 0.017388 
0.017882 -0.191561 0.991966 
0.017082 -0.378149 0.932695 
0.015416 -0.549453 0.837365 
0.013342 -0.699260 0.710114 
0.010850 -0.821697 0.556576 
0.007563 -0.912980 0.381828 
0.004213 -0.969337 0.193021 
-0.002732 -0.971476 -0.198706 
-0.006165 -0.916967 -0.387780 
-0.009467 -0.827206 -0.562717 
-0.012211 -0.705366 -0.716424 
-0.014474 -0.555786 -0.842882 
-0.016403 -0.384168 -0.936849 
-0.017483 -0.197418 -0.994146 
-0.017858 0.191609 -0.991925 
-0.016889 0.378169 -0.932362 
-0.015550 0.549412 -0.837321 
-0.013422 0.699297 -0.710267 
-0.010818 0.821785 -0.556674 
-0.007689 0.913002 -0.381940 
-0.004372 0.969351 -0.193080 
0.002580 0.971467 0.198651 
0.006235 0.916865 0.388024 
0.009473 0.827258 0.562657 
0.012311 0.705289 0.716339 
0.014606 0.555736 0.842990 
0.016459 0.384068 0.936641 
0.017601 0.197313 0.994012 
0.986027 -0.000179 0.215110 
0.935822 0.000449 0.405474 
0.848779 0.000871 0.580742 
0.727118 0.001326 0.734001 
0.576426 0.002000 0.858219 
0.403037 0.002330 0.947932 
0.214157 0.002569 0.999771 
-0.177182 0.002825 0.986309 
-0.364182 0.003095 0.922066 
-0.536581 0.002707 0.823405 
-0.687910 0.002527 0.695234 
-0.813435 0.002370 0.540810 
-0.909663 0.001652 0.366514 
-0.971939 0.001237 0.177958 
-0.986051 0.000141 -0.214968 
-0.935673 -0.000437 -0.405307 
-0.848451 -0.000818 -0.580667 
-0.726894 -0.001318 -0.733905 
-0.576271 -0.001846 -0.858498 
-0.403048 -0.002277 -0.947969 
-0.214112 -0.002620 -0.999748 
0.177336 -0.002992 -0.986310 
0.364261 -0.003093 -0.922127 
0.536773 -0.002815 -0.823504 
0.688050 -0.002580 -0.695220 
0.813418 -0.002342 -0.540842 
0.909645 -0.001779 -0.366413 
0.972114 -0.001323 -0.177920 
1.183131 0.186287 0.012255 
1.138700 0.368345 0.012197 
1.065930 0.541210 0.011610 
0.967267 0.700365 0.011090 
0.844832 0.841874 0.010118 
0.701608 0.962925 0.008397 
0.541508 1.059991 0.007133 
0.368299 1.131087 0.005441 
0.186177 1.174762 0.003993 
-0.187486 1.175426 -0.000166 
-0.369580 1.132545 -0.002348 
-0.542976 1.061449 -0.003715 
-0.702951 0.964651 -0.005289 
-0.846383 0.843539 -0.006974 
-0.968924 0.701501 -0.008947 
-1.067064 0.542430 -0.009905 
-1.139638 0.369301 -0.010830 
-1.183606 0.187127 -0.011626 
-1.183204 -0.186278 -0.012311 
-1.138934 -0.368436 -0.012170 
-1.066302 -0.541332 -0.011635 
-0.967632 -0.700591 -0.011004 
-0.844846 -0.842037 -0.009810 
-0.701624 -0.963079 -0.008357 
-0.541606 -1.059975 -0.007051 
-0.368357 -1.131140 -0.005471 
-0.186190 -1.174710 -0.004009 
0.187334 -1.175354 0.000127 
0.369448 -1.132241 0.002284 
0.542773 -1.061308 0.003773 
0.702829 -0.964537 0.005404 
0.846296 -0.843614 0.007055 
0.968894 -0.701550 0.009121 
1.067066 -0.542475 0.009961 
1.139656 -0.369353 0.010840 
1.183592 -0.187227 0.011681 
-0.001584 -1.176164 -0.189960 
-0.003221 -1.134173 -0.373364 
-0.005082 -1.064585 -0.548456 
-0.006434 -0.968660 -0.710814 
-0.008216 -0.848477 -0.855745 
-0.009809 -0.707021 -0.980219 
-0.010504 -0.547089 -1.080589 
-0.011236 -0.373264 -1.153887 
-0.011866 -0.189892 -1.197987 
-0.011984 0.185862 -1.196073 
-0.011665 0.368903 -1.149886 
-0.011076 0.541889 -1.075480 
-0.010216 0.701009 -0.974490 
-0.008993 0.842531 -0.850307 
-0.007262 0.963213 -0.704923 
-0.005928 1.059749 -0.543448 
-0.004597 1.130425 -0.369239 
-0.002448 1.174294 -0.185760 
0.001669 1.176323 0.190050 
0.003193 1.134038 0.373504 
0.004705 1.064847 0.548022 
0.006402 0.968727 0.710815 
0.008216 0.848402 0.855781 
0.009985 0.707004 0.979984 
0.010592 0.547051 1.080529 
0.011329 0.373247 1.153723 
0.011918 0.189952 1.197937 
0.012108 -0.185967 1.196049 
0.011666 -0.368802 1.150099 
0.011062 -0.542011 1.075517 
0.010255 -0.701086 0.974297 
0.008938 -0.842559 0.850162 
0.007220 -0.963153 0.704808 
0.005902 -1.059670 0.543374 
0.004563 -1.130404 0.369136 
0.002399 -1.174248 0.185561 
-1.177182 0.000798 0.176062 
-1.128286 0.000879 0.358308 
-1.052768 0.001339 0.531332 
-0.953233 0.001324 0.691453 
-0.831564 0.001882 0.836056 
-0.689219 0.001886 0.960906 
-0.530619 0.001923 1.062738 
-0.358343 0.001863 1.140562 
-0.176118 0.001989 1.190829 
0.201225 0.001716 1.203249 
0.386366 0.001697 1.163878 
0.562929 0.001486 1.094834 
0.725357 0.001191 0.996906 
0.868452 0.000990 0.872877 
0.989634 0.000817 0.727441 
1.085232 0.000347 0.563923 
1.152122 0.000014 0.386782 
1.189729 -0.000221 0.200990 
1.177235 -0.000858 -0.175871 
1.128183 -0.001124 -0.358370 
1.052672 -0.001361 -0.531330 
0.953356 -0.001430 -0.691515 
0.831527 -0.001835 -0.836142 
0.689184 -0.001771 -0.960962 
0.530663 -0.001895 -1.062843 
0.358512 -0.001933 -1.140523 
0.176115 -0.001941 -1.190931 
-0.201116 -0.001683 -1.203137 
-0.386185 -0.001659 -1.163881 
-0.562939 -0.001561 -1.094997 
-0.725279 -0.001480 -0.996573 
-0.868346 -0.000979 -0.872735 
-0.989424 -0.000778 -0.727274 
-1.084952 -0.000296 -0.563763 
-1.151999 0.000012 -0.386720 
-1.189733 0.000193 -0.200952 
0.805412 -0.393134 -0.402032 
0.407780 -0.786792 -0.440251 
0.377705 -0.376622 -0.836594 
0.880984 -0.296278 -0.322338 
0.290026 -0.886259 -0.333846 
0.665287 -0.333768 -0.639424 
0.544935 -0.624998 -0.533928 
0.864996 -0.476867 -0.094726 
0.167326 -0.617507 -0.769141 
0.594506 -0.171863 -0.762741 
0.858169 -0.156075 -0.445758 
0.197945 -0.845853 -0.482615 
0.943221 -0.138159 -0.249809 
0.788085 -0.290585 -0.504590 
0.673338 -0.637661 -0.334110 
0.459136 -0.853738 -0.196874 
0.623240 -0.750046 -0.166172 
0.511458 -0.474258 -0.698081 
0.779368 -0.142388 -0.573132 
0.548392 -0.746164 -0.342398 
0.980167 -0.122708 -0.096460 
0.766006 -0.611378 -0.140420 
0.148117 -0.939657 -0.279355 
0.931422 -0.304551 -0.143576 
0.722031 -0.465347 -0.476027 
0.265856 -0.941646 -0.151234 
0.532453 -0.299734 -0.772735 
0.322024 -0.700489 -0.625474 
0.823837 -0.464509 -0.277294 
0.480436 -0.182127 -0.842623 
0.136467 -0.754006 -0.640081 
0.179991 -0.480008 -0.860611 
0.160604 -0.318960 -0.938197 
0.337222 -0.553741 -0.752711 
0.623232 -0.477308 -0.592202 
0.122894 -0.974313 -0.126681 
0.434763 -0.597649 -0.657827 
0.312030 -0.216907 -0.920247 
0.187626 -0.134877 -0.975226 
0.485796 0.572854 -0.628850 
0.493655 0.772648 -0.349142 
0.792431 0.365304 -0.439922 
0.383496 0.460405 -0.780861 
0.342319 0.873679 -0.294416 
0.273252 0.307301 -0.903096 
0.152447 0.159676 -0.977103 
0.743123 0.210814 -0.596622 
0.657073 0.528072 -0.494675 
0.496052 0.835841 -0.159891 
0.582830 0.171174 -0.768652 
0.173825 0.866062 -0.437941 
0.152671 0.468133 -0.865061 
0.542500 0.672395 -0.460022 
0.145657 0.942175 -0.252164 
0.371479 0.134984 -0.907132 
0.106480 0.317705 -0.943706 
0.614606 0.692436 -0.323350 
0.100652 0.617281 -0.772760 
0.155190 0.745127 -0.631179 
0.286279 0.615233 -0.715518 
0.848320 0.479192 -0.154806 
0.591059 0.385527 -0.676641 
0.363829 0.754781 -0.511770 
0.748047 0.544962 -0.321940 
0.122285 0.974062 -0.106752 
0.284364 0.935062 -0.132906 
0.700509 0.681265 -0.134083 
0.935220 0.143615 -0.268684 
0.454991 0.298803 -0.818584 
0.842161 0.403169 -0.300722 
0.860318 0.166149 -0.433689 
0.930909 0.288205 -0.159961 
0.882510 0.278360 -0.324588 
0.976018 0.126055 -0.114218 
0.707974 0.376646 -0.556764 
0.478349 0.462773 0.782058 
0.459469 0.801543 0.397449 
0.841987 0.411806 0.393777 
0.351591 0.317087 0.911765 
0.307723 0.899069 0.306439 
0.912509 0.336681 0.276056 
0.968731 0.167883 0.230822 
0.563572 0.632773 0.563331 
0.124372 0.482509 0.885397 
0.771145 0.168402 0.663015 
0.463012 0.163140 0.907561 
0.430527 0.877134 0.194270 
0.867935 0.469886 0.186739 
0.281103 0.144504 0.976217 
0.254615 0.947515 0.150159 
0.940565 0.320074 0.142792 
0.633761 0.162260 0.800809 
0.535330 0.294932 0.831132 
0.332276 0.630111 0.727190 
0.775730 0.616103 0.130949 
0.670532 0.718386 0.185572 
0.604179 0.496799 0.662027 
0.204696 0.752268 0.641777 
0.766082 0.575874 0.316859 
0.636822 0.683140 0.384299 
0.401019 0.719175 0.591098 
0.554729 0.797995 0.236267 
0.110947 0.976448 0.128501 
0.130799 0.126257 1.002893 
0.480007 0.596381 0.675507 
0.164996 0.613717 0.790197 
0.715981 0.507761 0.520217 
0.660454 0.352754 0.706752 
0.175571 0.312027 0.955822 
0.168941 0.941128 0.275777 
0.799789 0.321391 0.555822 
0.856548 0.141904 0.548655 
0.223840 0.860537 0.463569 
0.898635 0.233827 0.422124 
0.273291 0.479362 0.859871 
0.518343 -0.782488 0.352180 
0.347638 -0.370520 0.885865 
0.333719 -0.866070 0.365393 
0.166111 -0.461652 0.884311 
0.533715 -0.157086 0.868202 
0.429321 -0.876784 0.194327 
0.620846 -0.545213 0.594849 
0.285805 -0.172368 0.967573 
0.230684 -0.947160 0.181411 
0.916650 -0.372344 0.180009 
0.783129 -0.400143 0.518294 
0.740088 -0.655719 0.154175 
0.882735 -0.188300 0.481002 
0.961601 -0.181111 0.254368 
0.525754 -0.321189 0.821783 
0.576575 -0.673349 0.484184 
0.613340 -0.768897 0.173258 
0.714776 -0.634120 0.318704 
[...]
POINT_DATA 1108
SCALARS u float 1
LOOKUP_TABLE default
0.018550
0.018377
0.011099
0.011350
0.022365
0.022257
0.012367
0.012365
0.010554
0.010433
0.017175
0.017273
0.018797
0.018663
0.017997
0.017162
0.015596
0.014219
0.012690
0.009892
0.009809
0.010886
0.012554
0.014190
0.016142
0.017452
0.018630
0.018455
0.017739
0.016909
0.015678
0.014382
0.012609
0.010192
0.010130
0.011130
0.012522
0.014216
0.016168
0.017498
0.021383
0.019750
0.017602
0.015768
0.014637
0.013294
0.012373
0.010354
0.010573
0.012605
0.015458
0.018434
0.020964
0.022127
0.021334
0.019431
0.017719
0.015847
0.014561
0.013341
0.012406
0.010304
0.010798
0.012558
0.015495
0.018603
0.020873
0.022129
0.020695
0.025733
0.030562
0.033548
0.033978
0.031595
0.027029
0.018953
0.018845
0.020808
0.022712
0.023425
0.021594
0.019321
0.020564
0.025517
0.030314
0.033338
0.034095
0.031626
0.026987
0.018834
0.018762
0.020609
0.022608
0.023415
0.021691
0.019281
0.012515
0.012708
0.012583
0.012664
0.012661
0.012116
0.012108
0.011816
0.011306
0.009804
0.009119
0.008792
0.008471
0.008839
0.009920
0.010406
0.011057
0.011754
0.012559
0.012619
0.012480
0.012403
0.012326
0.011983
0.012045
0.011772
0.011358
0.009880
0.009412
0.008983
0.008661
0.008883
0.010064
0.010448
0.011057
0.011805
0.009467
0.008196
0.007787
0.008718
0.010935
0.013688
0.015658
0.017073
0.017560
0.016270
0.014629
0.013054
0.011688
0.010954
0.010525
0.011244
0.011883
0.011373
0.009353
0.008347
0.007184
0.008679
0.010960
0.013654
0.015668
0.017010
0.017566
0.016334
0.014771
0.013034
0.011634
0.010872
0.010545
0.011305
0.011903
0.011443
0.014188
0.018052
0.021287
0.022450
0.021139
0.019021
0.015695
0.012636
0.013038
0.022586
0.027491
0.031433
0.032900
0.031477
0.029034
0.024960
0.019303
0.014014
0.014318
0.018096
0.021363
0.022321
0.021114
0.019011
0.015609
0.012481
0.013078
0.022429
0.027389
0.031574
0.032602
0.031300
0.028770
0.024657
0.019182
0.013979
0.018910
0.011963
0.016552
0.018965
0.010491
0.019755
0.015204
0.015248
0.014651
0.020359
0.021491
0.011153
0.019469
0.020645
0.015354
0.011206
0.012844
0.016594
0.022404
0.013250
0.018023
0.014302
0.010137
0.017175
0.018508
0.009942
0.018684
0.012911
0.017036
0.018731
0.012878
0.016292
0.017871
0.014554
0.017872
0.010188
0.014554
0.017481
0.018424
0.021586
0.019517
0.023492
0.020149
0.017205
0.018844
0.019036
0.023982
0.022798
0.017281
0.022284
0.016139
0.017865
0.021539
0.014548
0.019446
0.018788
0.020546
0.016959
0.016759
0.018849
0.019856
0.023171
0.019327
0.021915
0.013032
0.014792
0.018731
0.020996
0.021119
0.021818
0.023374
0.019872
0.022144
0.019138
0.023775
0.029055
0.016362
0.023939
0.029523
0.012697
0.021715
0.021479
0.022983
0.022060
0.032046
0.032603
0.013693
0.019320
0.029059
0.012149
0.019557
0.034199
0.032400
0.022764
0.017528
0.016734
0.027693
0.017525
0.020076
0.019470
0.020052
0.015307
0.010886
0.025156
0.024959
0.020330
0.025305
0.031115
0.025474
0.011180
0.028830
0.029808
0.013647
0.025896
0.025533
0.013478
0.025913
0.011837
0.020852
0.032119
0.010690
0.022985
0.027587
0.010602
0.017736
0.025120
0.013925
0.026842
0.021009
0.029278
0.017583
0.012348
0.016710
0.024402
0.023372
0.014581
0.012366
0.015111
0.015832
0.019686
0.031047
0.012952
0.024057
0.020985
0.019376
0.028305
0.017972
0.017631
0.021474
0.032482
0.029922
0.022093
0.010904
0.021734
0.019646
0.023219
0.020415
0.017408
0.018819
0.018947
0.023855
0.022931
0.017466
0.022575
0.016146
0.017978
0.021209
0.014409
0.019526
0.018782
0.020529
0.016867
0.016741
0.018874
0.019479
0.023284
0.019368
0.021775
0.013026
0.014882
0.018571
0.020820
0.021115
0.021859
0.023272
0.019607
0.021993
0.019074
0.023926
0.028519
0.016179
0.023512
0.029556
0.012812
0.021556
0.021364
0.023047
0.021967
0.032014
0.032566
0.013765
0.019144
0.028946
0.012085
0.019387
0.033838
0.032329
0.022440
0.017260
0.016795
0.027569
0.017077
0.019976
0.019439
0.019974
0.015379
0.011004
0.025175
0.024410
0.020290
0.025146
0.030838
0.025555
0.011379
0.028564
0.029497
0.013732
0.025861
0.025521
0.013371
0.025853
0.011797
0.020884
0.032306
0.010558
0.022911
0.027582
0.010458
0.017706
0.024957
0.013892
0.026703
0.020882
0.029144
0.017634
0.012135
0.016608
0.024247
0.023230
0.014495
0.012395
0.015135
0.015850
0.019644
0.030952
0.012971
0.024001
0.020824
0.019137
0.028174
0.017800
0.017593
0.021345
0.032412
0.029987
0.021890
0.010766
0.018917
0.011959
0.016674
0.019051
0.010543
0.019761
0.015188
0.015275
0.014675
0.020458
0.021531
0.010808
0.019349
0.020637
0.015302
0.011044
0.012496
0.016625
0.022429
0.013157
0.017947
0.014243
0.010141
0.017210
0.018499
0.009789
0.018783
0.013081
0.017007
0.018864
0.012955
0.016386
0.017943
0.014691
0.017856
0.010062
0.014692
0.017554
0.018471
0.013754
0.020925
0.022070
0.015703
0.008137
0.015514
0.008680
0.023422
0.012481
0.009735
0.021143
0.028504
0.011536
0.015400
0.026222
0.009348
0.031197
0.014601
0.009359
0.014092
0.010808
0.007785
0.020373
0.010107
0.018404
0.017804
0.012274
0.008637
0.015345
0.010346
0.023316
0.025158
0.016970
0.016500
0.021632
0.009219
0.019408
0.030122
0.010022
0.028671
0.018694
0.031760
0.011622
0.024642
0.009496
0.020460
0.008450
0.010400
0.008033
0.013594
0.007876
0.019024
0.013184
0.010477
0.012645
0.012441
0.024091
0.027155
0.008849
0.028670
0.017608
0.025690
0.020334
0.020550
0.015106
0.015677
0.018801
0.014498
0.017379
0.012925
0.012815
0.014021
0.012929
0.022848
0.015246
0.014062
0.013774
0.022866
0.018405
0.012147
0.019551
0.018296
0.015062
0.015569
0.013703
0.019988
0.012531
0.021298
0.014231
0.015183
0.012822
0.015995
0.018261
0.017410
0.021292
0.022355
0.019873
0.021520
0.018027
0.012357
0.022497
0.014754
0.020425
0.012326
0.021371
0.016530
0.023080
0.016220
0.021314
0.017451
0.015203
0.016633
0.018316
0.019892
0.022200
0.013323
0.011519
0.018475
0.023193
0.016713
0.014680
0.014543
0.012949
0.012355
0.027642
0.017854
0.009470
0.027611
0.019565
0.025354
0.016627
0.008765
0.024691
0.015850
0.009605
0.012700
0.017386
0.012860
0.012620
0.019060
0.010425
0.009510
0.026358
0.030955
0.032494
0.027376
0.013296
0.021025
0.008498
0.023104
0.029212
0.021245
0.013295
0.021382
0.012687
0.016875
0.014978
0.019260
0.021192
0.020874
0.027526
0.011471
0.014902
0.011115
0.011285
0.012068
0.010983
0.022473
0.015524
0.024622
0.016430
0.030295
0.032434
0.030363
0.023947
0.022603
0.026154
0.013024
0.020680
0.022517
0.017843
0.009652
0.030880
0.010176
0.007971
0.010261
0.017420
0.013165
0.009883
0.011944
0.017102
0.011733
0.015333
0.012504
0.015077
0.009654
0.012974
0.009320
0.011701
0.011131
0.012373
0.007811
0.010215
0.019614
0.015814
0.016648
0.021026
0.012850
0.012470
0.009831
0.015215
0.012768
0.018622
0.014122
0.012745
0.011138
0.008502
0.009366
0.011189
0.013166
0.015268
0.012971
0.017504
0.012567
0.010332
0.010489
0.009255
0.010994
0.008562
0.010382
0.010457
0.014749
0.010946
0.015380
0.019113
0.021095
0.014061
0.019248
0.014231
0.017284
0.012713
0.014616
0.015298
0.011670
0.009369
0.019576
0.009244
0.009504
0.015687
0.024522
0.027048
0.017152
0.008725
0.016570
0.008979
0.013177
0.010353
0.015281
0.030216
0.031623
0.019509
0.010174
0.026813
0.018612
0.032409
0.011550
0.015200
0.012616
0.010344
0.008220
0.020962
0.030084
0.020661
0.013451
0.009814
0.009154
0.015780
0.026716
0.022527
0.026086
0.028876
0.021382
0.020239
0.024825
0.011740
0.020913
0.011592
0.030646
0.030260
0.022948
0.032502
0.014827
0.026064
0.012528
0.021725
0.008952
0.011499
0.011381
0.015359
0.009649
0.016434
0.020960
0.010253
0.012991
0.026123
0.016269
0.026366
0.010911
0.022840
0.020443
0.017384
0.013096
0.009822
0.011832
0.017074
0.011685
0.015340
0.009607
0.012470
0.015146
0.009707
0.009507
0.012989
0.009006
0.011133
0.012463
0.007750
0.010296
0.019606
0.015702
0.016516
0.021000
0.012828
0.012469
0.008545
0.015201
0.012654
0.018675
0.014115
0.012756
0.011494
0.010867
0.013433
0.015328
0.012805
0.017498
0.012413
0.010371
0.010736
0.009069
0.012234
0.008477
0.010551
0.010320
0.014757
0.010848
0.015435
0.019038
0.021022
0.013907
0.019226
0.014137
0.017294
0.012762
0.014610
0.011455
0.015377
0.010761
0.019501
0.008542
0.009696
0.009552
0.013727
0.020924
0.023846
0.015799
0.008184
0.015593
0.008785
0.012527
0.009878
0.028664
0.011545
0.029674
0.015364
0.026378
0.009342
0.030933
0.014582
0.009441
0.014195
0.010853
0.007880
0.020553
0.010123
0.028292
0.017781
0.012296
0.008748
0.015417
0.010437
0.023018
0.018778
0.025328
0.025994
0.017142
0.016503
0.021847
0.009195
0.019588
0.030266
0.009991
0.027501
0.018706
0.031797
0.011556
0.024813
0.009475
0.020656
0.008424
0.010508
0.008156
0.013642
0.007939
0.019162
0.013122
0.010573
0.012713
0.024422
0.012474
0.024147
0.008917
0.020984
0.019589
0.018369
0.021668
0.020818
0.015725
0.013502
0.014488
0.012621
0.017981
0.012756
0.013367
0.014809
0.018095
0.022443
0.022932
0.015305
0.018756
0.014643
0.022626
0.015562
0.016855
0.013579
0.012322
0.014237
0.013917
0.020745
0.021194
0.013763
0.012372
0.012888
0.012487
0.021855
0.020935
0.023135
0.022194
0.020767
0.017306
0.018119
0.014541
0.021035
0.018476
0.022620
0.014689
0.022913
0.017893
0.019731
0.016723
0.015805
0.014966
0.012497
0.015674
0.013361
0.019869
0.020193
0.014144
0.011576
0.021263
0.019461
0.018384
0.012292
0.014979
0.018356
0.013914
0.016189
0.016591
0.025860
0.018236
0.019914
0.022770
0.022273
0.008257
0.004286
0.016528
0.015443
0.018746
0.016610
0.027268
0.015825
0.017040
0.018309
0.027742
0.021116
0.003824
0.010693
0.013246
0.012733
0.016025
0.025732
0.021867
0.024497
0.021279
0.022778
0.018594
0.027576
0.026554
0.023964
0.022872
0.014854
0.028137
0.027609
0.010694
0.021815
0.009717
0.021132
0.031676
0.017489
0.022482
0.018452
0.030267
0.012815
0.012934
0.027337
0.013932
0.016362
0.025312
0.030494
0.021127
0.020526
0.018702
0.020288
0.014816
0.020669
0.024210
0.020681
0.020868
0.018035
0.019421
0.019961
0.020869
0.026314
0.031161
0.016077
0.021905
0.025916
0.026366
0.026417
0.029428
0.017844
0.021437
0.024263
0.029240
0.026242
0.025027
0.023018
0.026729
0.025230
0.030991
0.027658
0.022372
0.011695
0.012874
0.010154
0.016636
0.011913
0.011579
0.020163
0.022734
0.019211
0.019837
0.021208
0.021815
0.010429
0.007995
0.020691
0.006233
