# vtk DataFile Version 2.0
Unstructured Grid Example
ASCII
DATASET UNSTRUCTURED_GRID
POINTS 1108 float
1.017597 0.022807 -0.003743 
-1.017322 -0.022485 0.003519 
0.022713 0.976414 0.006215 
-0.022702 -0.976256 -0.006276 
-0.003719 0.006050 1.006933 
0.003798 -0.006291 -1.006099 
1.216519 0.015068 -0.002483 
-1.216504 -0.015222 0.002331 
0.015045 1.177706 0.003877 
-0.015361 -1.177502 -0.004093 
-0.002403 0.004032 1.206503 
0.002367 -0.003905 -1.206065 
1.005998 0.216239 -0.002311 
0.954385 0.402303 -0.001120 
0.864115 0.572438 0.000057 
0.738803 0.719676 0.001648 
0.584586 0.836733 0.003081 
0.408852 0.919831 0.004271 
0.218812 0.966942 0.005262 
-0.172730 0.949899 0.006731 
-0.360377 0.887673 0.007126 
-0.535246 0.793464 0.007105 
-0.690586 0.671113 0.006828 
-0.820876 0.523188 0.006412 
-0.922081 0.354346 0.005687 
-0.988711 0.170229 0.004713 
-1.005621 -0.216052 0.002183 
-0.954140 -0.402180 0.001224 
-0.863483 -0.572230 -0.000194 
-0.738226 -0.719736 -0.001744 
-0.584430 -0.837055 -0.003043 
-0.408950 -0.920266 -0.004211 
-0.219017 -0.966869 -0.005402 
0.172531 -0.949766 -0.006894 
0.360228 -0.887811 -0.007231 
0.535091 -0.793403 -0.007274 
0.690249 -0.671098 -0.006950 
0.820861 -0.523158 -0.006484 
0.921829 -0.354089 -0.005852 
0.988612 -0.169929 -0.004932 
-0.008247 -0.186174 0.985077 
-0.012218 -0.370490 0.924582 
-0.015879 -0.539340 0.828481 
-0.018753 -0.687109 0.701289 
-0.020990 -0.807936 0.548278 
-0.022341 -0.898449 0.374872 
-0.023268 -0.955788 0.188130 
-0.021518 -0.960434 -0.200847 
-0.019546 -0.908015 -0.388515 
-0.016656 -0.820635 -0.561922 
-0.013172 -0.700532 -0.714424 
-0.009462 -0.552893 -0.839838 
-0.005088 -0.383425 -0.932561 
-0.000506 -0.198933 -0.988773 
0.007968 0.186477 -0.984537 
0.012074 0.370593 -0.923864 
0.015775 0.539522 -0.828536 
0.018543 0.687337 -0.701510 
0.020744 0.808134 -0.548403 
0.022136 0.898642 -0.375001 
0.023053 0.955799 -0.188207 
0.021372 0.960401 0.200583 
0.019433 0.907897 0.388116 
0.016798 0.820087 0.561918 
0.013258 0.700270 0.714352 
0.009775 0.552778 0.839751 
0.005329 0.383160 0.932905 
0.000628 0.198551 0.989216 
0.996303 0.023373 0.192971 
0.936703 0.023317 0.382254 
0.841616 0.022005 0.556600 
0.714207 0.020267 0.709115 
0.559840 0.017825 0.834480 
0.384370 0.014106 0.928082 
0.194163 0.009921 0.986294 
-0.201355 0.001237 0.989211 
-0.392350 -0.002829 0.933592 
-0.567738 -0.007809 0.841585 
-0.721459 -0.011482 0.716976 
-0.847917 -0.015274 0.564573 
-0.941770 -0.018327 0.390023 
-0.998994 -0.020734 0.200424 
-0.996244 -0.023156 -0.193208 
-0.936784 -0.023273 -0.382493 
-0.841769 -0.021812 -0.556828 
-0.714374 -0.020163 -0.709222 
-0.560224 -0.017469 -0.834242 
-0.384247 -0.013653 -0.927587 
-0.193829 -0.009932 -0.985464 
0.201689 -0.001765 -0.988863 
0.391996 0.002877 -0.933219 
0.567687 0.007622 -0.841355 
0.721733 0.011570 -0.717040 
0.848308 0.015344 -0.564671 
0.941881 0.018674 -0.390171 
0.998994 0.021177 -0.200781 
1.209107 0.203090 -0.001819 
1.170127 0.387314 -0.001004 
1.100228 0.562412 -0.000214 
1.000801 0.722599 0.000543 
0.875722 0.863291 0.000937 
0.729055 0.980825 0.001909 
0.564752 1.072421 0.002488 
0.387547 1.136043 0.003022 
0.202763 1.171123 0.003646 
-0.171427 1.155718 0.004235 
-0.352735 1.106734 0.004772 
-0.524285 1.032404 0.004745 
-0.684543 0.935851 0.005031 
-0.830005 0.817426 0.004523 
-0.956090 0.678165 0.004205 
-1.060489 0.522207 0.004019 
-1.140733 0.352301 0.003585 
-1.193612 0.171708 0.003135 
-1.208676 -0.202856 0.001766 
-1.169807 -0.386842 0.000765 
-1.099883 -0.562278 0.000112 
-1.000362 -0.722079 -0.000574 
-0.875967 -0.862800 -0.001005 
-0.729295 -0.980754 -0.002049 
-0.564896 -1.072696 -0.002525 
-0.387599 -1.136281 -0.003137 
-0.202774 -1.171022 -0.003518 
0.171386 -1.155755 -0.004315 
0.352515 -1.106773 -0.004754 
0.524204 -1.032372 -0.004866 
0.684437 -0.935798 -0.005074 
0.829829 -0.817233 -0.004613 
0.955852 -0.677982 -0.004272 
1.060319 -0.521989 -0.004092 
1.140499 -0.352166 -0.003651 
1.193517 -0.171728 -0.003208 
-0.014588 -1.165486 -0.190414 
-0.013605 -1.125303 -0.373129 
-0.012337 -1.057392 -0.547480 
-0.011065 -0.963048 -0.708937 
-0.008852 -0.844202 -0.853762 
-0.006492 -0.703719 -0.977431 
-0.004487 -0.545373 -1.076977 
-0.002256 -0.372654 -1.149635 
-0.000230 -0.190165 -1.193150 
0.005073 0.181871 -1.188748 
0.007040 0.363812 -1.141842 
0.008993 0.534687 -1.066565 
0.010732 0.692187 -0.965179 
0.012100 0.831716 -0.841283 
0.013961 0.950662 -0.696692 
0.014424 1.045957 -0.536243 
0.014947 1.116918 -0.363763 
0.015288 1.161009 -0.182052 
0.014604 1.165540 0.190524 
0.013630 1.125196 0.372972 
0.012286 1.056569 0.547800 
0.011319 0.962463 0.708878 
0.009016 0.843925 0.853548 
0.006103 0.703678 0.977534 
0.004538 0.545359 1.076977 
0.002364 0.372707 1.149895 
0.000243 0.190373 1.193561 
-0.004868 -0.182635 1.189446 
-0.007031 -0.363595 1.142273 
-0.009178 -0.534899 1.066601 
-0.010814 -0.692147 0.965199 
-0.012078 -0.831582 0.841092 
-0.014072 -0.950503 0.696580 
-0.014528 -1.045739 0.536136 
-0.015059 -1.116797 0.363751 
-0.015369 -1.160975 0.181994 
-1.202621 -0.014183 0.192246 
-1.158783 -0.013241 0.377106 
-1.085813 -0.011526 0.552694 
-0.986115 -0.010173 0.714121 
-0.861745 -0.007622 0.858208 
-0.716114 -0.005399 0.981495 
-0.554149 -0.003311 1.079698 
-0.377119 -0.000884 1.150271 
-0.191966 0.001430 1.192984 
0.187023 0.006389 1.190532 
0.371539 0.008757 1.145794 
0.547093 0.010535 1.072978 
0.709176 0.011683 0.974142 
0.854326 0.013552 0.851354 
0.978832 0.014921 0.707708 
1.079993 0.015132 0.546254 
1.154182 0.015551 0.371616 
1.200028 0.015554 0.186973 
1.202839 0.014161 -0.192298 
1.159060 0.013189 -0.377274 
1.086316 0.011495 -0.552810 
0.986438 0.009992 -0.714266 
0.861806 0.007640 -0.858446 
0.715931 0.005623 -0.981483 
0.554013 0.003146 -1.079254 
0.377495 0.000737 -1.149890 
0.191603 -0.000905 -1.192687 
-0.187062 -0.006174 -1.189880 
-0.371481 -0.009200 -1.144951 
-0.546888 -0.010467 -1.072749 
-0.708754 -0.012226 -0.974240 
-0.854338 -0.013435 -0.851499 
-0.978938 -0.014740 -0.707829 
-1.080133 -0.014952 -0.546372 
-1.154280 -0.015401 -0.371697 
-1.199981 -0.015458 -0.187028 
0.819089 -0.373560 -0.420921 
0.402478 -0.768071 -0.447635 
0.393985 -0.368327 -0.846333 
0.897597 -0.275550 -0.343143 
0.278037 -0.867659 -0.339581 
0.684926 -0.319448 -0.657045 
0.548961 -0.607928 -0.545322 
0.863751 -0.451213 -0.114471 
0.171552 -0.610054 -0.770714 
0.620439 -0.160086 -0.780712 
0.884762 -0.137390 -0.468161 
0.190514 -0.832172 -0.485588 
0.966079 -0.116545 -0.272406 
0.808786 -0.273203 -0.524739 
0.672390 -0.614964 -0.348874 
0.444760 -0.828596 -0.207043 
0.612092 -0.722734 -0.180658 
0.524173 -0.461880 -0.710402 
0.807971 -0.126195 -0.595138 
0.542677 -0.723643 -0.353417 
0.998330 -0.099725 -0.118798 
0.760523 -0.584896 -0.157830 
0.132478 -0.924268 -0.282759 
0.941537 -0.280909 -0.164931 
0.733604 -0.447027 -0.492854 
0.247604 -0.920245 -0.158097 
0.553267 -0.289003 -0.787784 
0.323114 -0.687201 -0.631115 
0.830142 -0.442061 -0.295927 
0.504704 -0.173172 -0.857495 
0.134628 -0.744849 -0.641224 
0.190241 -0.474722 -0.862895 
0.176143 -0.315662 -0.940119 
0.345605 -0.543411 -0.759891 
0.635465 -0.462215 -0.606670 
0.102681 -0.957466 -0.131102 
0.441239 -0.584372 -0.667138 
0.332900 -0.211720 -0.928528 
0.208973 -0.132352 -0.978390 
0.526229 0.584692 -0.642951 
0.532218 0.785272 -0.359825 
0.836757 0.386213 -0.462884 
0.420432 0.467282 -0.791827 
0.376334 0.878623 -0.299705 
0.305591 0.310040 -0.909456 
0.179593 0.159061 -0.977929 
0.783977 0.228470 -0.620194 
0.700658 0.546337 -0.513880 
0.531248 0.848628 -0.169063 
0.619621 0.183628 -0.788442 
0.206526 0.861885 -0.437159 
0.185142 0.465596 -0.864852 
0.583815 0.687408 -0.474558 
0.175500 0.936382 -0.250868 
0.402639 0.141138 -0.918807 
0.135898 0.314443 -0.941534 
0.655874 0.710465 -0.338458 
0.133441 0.611460 -0.769327 
0.189094 0.740772 -0.629975 
0.322146 0.617751 -0.720830 
0.889265 0.503133 -0.174522 
0.632599 0.400094 -0.696022 
0.401010 0.761279 -0.519199 
0.792013 0.566919 -0.341545 
0.149058 0.967228 -0.105461 
0.314537 0.936638 -0.135891 
0.739667 0.701947 -0.149101 
0.970750 0.165934 -0.292282 
0.491467 0.308032 -0.833919 
0.885377 0.426151 -0.322579 
0.900599 0.186719 -0.458246 
0.968476 0.311980 -0.181809 
0.923829 0.300875 -0.348077 
1.006418 0.149298 -0.136640 
0.751681 0.395023 -0.578926 
0.477026 0.470555 0.768044 
0.477698 0.810195 0.390075 
0.858291 0.430962 0.377353 
0.341730 0.323336 0.898245 
0.327680 0.901722 0.302323 
0.932744 0.357995 0.258049 
0.985224 0.190758 0.210171 
0.574894 0.643425 0.552224 
0.118163 0.482430 0.879438 
0.767625 0.185734 0.641699 
0.449623 0.173557 0.889081 
0.455270 0.885253 0.188417 
0.895646 0.491825 0.170309 
0.265264 0.151087 0.961863 
0.278013 0.947753 0.147525 
0.966650 0.343034 0.123908 
0.623991 0.176530 0.779213 
0.527890 0.305145 0.813610 
0.335105 0.633398 0.718341 
0.807169 0.636640 0.116857 
0.699219 0.735627 0.174110 
0.609397 0.508389 0.647841 
0.210453 0.751521 0.636189 
0.788812 0.594357 0.303137 
0.656910 0.697636 0.373288 
0.410783 0.724806 0.582967 
0.580088 0.810845 0.227925 
0.132983 0.969454 0.129225 
0.112984 0.130261 0.993578 
0.485350 0.604361 0.664111 
0.164294 0.613283 0.784177 
0.727764 0.523143 0.505804 
0.660244 0.366246 0.689046 
0.163830 0.314574 0.946732 
0.187791 0.937722 0.274253 
0.805601 0.338545 0.537935 
0.856122 0.161583 0.527093 
0.236992 0.859807 0.459899 
0.908050 0.254062 0.402356 
0.268363 0.481958 0.850144 
0.490379 -0.749690 0.331179 
0.320158 -0.352155 0.863745 
0.304885 -0.837675 0.348796 
0.136841 -0.447246 0.868757 
0.511899 -0.139291 0.843274 
0.403766 -0.846288 0.178391 
0.592635 -0.515098 0.567456 
0.262186 -0.160017 0.949406 
0.204621 -0.922799 0.170537 
0.909528 -0.344619 0.156895 
0.761539 -0.371310 0.490700 
0.722131 -0.623924 0.133159 
0.871253 -0.163146 0.455309 
0.961029 -0.155565 0.230651 
0.499737 -0.299504 0.795381 
0.548257 -0.641135 0.459542 
0.590846 -0.735881 0.153724 
0.691366 -0.601658 0.294920 
[...]
POINT_DATA 1108
SCALARS u float 1
LOOKUP_TABLE default
0.029049
0.028601
0.033329
0.033445
0.009925
0.009550
0.022497
0.022572
0.027174
0.027548
0.008020
0.007592
0.032989
0.036288
0.036746
0.034137
0.029649
0.026822
0.027966
0.038720
0.043120
0.043681
0.040188
0.034669
0.028959
0.026516
0.032572
0.036018
0.036090
0.033629
0.029553
0.026846
0.028201
0.038970
0.043099
0.043833
0.040362
0.034715
0.029259
0.026808
0.012881
0.017275
0.022902
0.028026
0.032367
0.034740
0.034853
0.030172
0.025841
0.020860
0.016440
0.012912
0.010089
0.008879
0.012319
0.017087
0.022694
0.027677
0.032035
0.034438
0.034687
0.030041
0.025741
0.021260
0.016583
0.013112
0.010492
0.009135
0.028135
0.026614
0.024253
0.021569
0.018574
0.014815
0.011385
0.010572
0.013993
0.017645
0.020862
0.024183
0.026643
0.028105
0.027905
0.026612
0.024154
0.021537
0.018290
0.014233
0.011051
0.010578
0.013499
0.017396
0.021130
0.024531
0.026997
0.028503
0.028457
0.033255
0.035677
0.034597
0.030957
0.025807
0.020373
0.017783
0.020939
0.033973
0.039274
0.042396
0.040997
0.036482
0.031197
0.024537
0.018871
0.018346
0.027965
0.032737
0.035310
0.033958
0.030945
0.026011
0.020564
0.017783
0.020993
0.033970
0.039340
0.042477
0.041101
0.036747
0.031478
0.024811
0.019024
0.018298
0.024693
0.021102
0.017293
0.013991
0.011156
0.009406
0.008990
0.008858
0.008295
0.008507
0.009950
0.013781
0.017890
0.021944
0.026002
0.028665
0.029430
0.029194
0.024671
0.021183
0.017882
0.014507
0.011299
0.009224
0.009016
0.009141
0.008750
0.008209
0.010132
0.013742
0.017963
0.022099
0.026222
0.028926
0.029590
0.029276
0.022896
0.022839
0.021704
0.020359
0.018069
0.016097
0.014444
0.011023
0.008958
0.008334
0.009884
0.011424
0.012737
0.015008
0.017100
0.018640
0.020230
0.021485
0.023058
0.023068
0.022117
0.020576
0.018249
0.016045
0.013997
0.010929
0.008459
0.007760
0.009932
0.011248
0.013146
0.014936
0.017010
0.018586
0.020181
0.021381
0.023969
0.029788
0.012409
0.024229
0.032910
0.018370
0.024735
0.030856
0.014974
0.016580
0.023226
0.026360
0.025827
0.021430
0.031414
0.039388
0.038990
0.017200
0.021159
0.033609
0.026780
0.034638
0.032031
0.026593
0.023763
0.037893
0.014881
0.021607
0.027650
0.014249
0.019459
0.011119
0.009087
0.015832
0.020324
0.035099
0.019640
0.010763
0.009540
0.024635
0.027408
0.032158
0.020357
0.026684
0.015799
0.012103
0.027054
0.029731
0.028256
0.021381
0.028203
0.018655
0.027786
0.030177
0.015291
0.015083
0.030541
0.022865
0.025642
0.021640
0.036675
0.025316
0.024940
0.033702
0.030362
0.027334
0.033816
0.031077
0.019727
0.034592
0.030000
0.034952
0.033213
0.031721
0.029352
0.021189
0.026317
0.033057
0.015769
0.024720
0.033668
0.031349
0.027072
0.013482
0.024625
0.016444
0.026707
0.036124
0.012318
0.026056
0.034918
0.020653
0.019713
0.019596
0.035481
0.032811
0.026146
0.018877
0.033787
0.030957
0.023108
0.029399
0.028597
0.010169
0.023500
0.015893
0.030271
0.024902
0.011946
0.025493
0.028995
0.026478
0.022283
0.029829
0.015880
0.045307
0.022894
0.043909
0.022537
0.019283
0.045685
0.036084
0.015449
0.042241
0.030314
0.031506
0.040149
0.026065
0.027120
0.024350
0.041415
0.044702
0.040608
0.011867
0.016468
0.036686
0.039460
0.041745
0.034978
0.038323
0.024304
0.041409
0.031718
0.037265
0.034290
0.028832
0.036869
0.029699
0.028989
0.021751
0.018824
0.029571
0.037815
0.024785
0.027409
0.031332
0.020370
0.026732
0.016214
0.012397
0.026875
0.029599
0.028247
0.021539
0.028426
0.018677
0.027434
0.030263
0.015611
0.015065
0.030203
0.023023
0.025876
0.021936
0.036157
0.025313
0.025202
0.033799
0.030554
0.027376
0.033226
0.030600
0.019864
0.034182
0.029401
0.034355
0.032483
0.031375
0.029041
0.021001
0.026362
0.033014
0.015231
0.024388
0.033687
0.031176
0.026852
0.013116
0.024741
0.015936
0.026624
0.035455
0.012031
0.026201
0.034680
0.020774
0.019666
0.019655
0.035009
0.032201
0.025828
0.018986
0.033909
0.030770
0.023041
0.029315
0.028682
0.009731
0.023472
0.015735
0.029888
0.024797
0.011600
0.025315
0.028917
0.026575
0.022189
0.030186
0.015981
0.044942
0.022562
0.043470
0.021926
0.019130
0.045400
0.035704
0.014891
0.041990
0.030042
0.031243
0.039920
0.025875
0.026896
0.024081
0.041020
0.044493
0.040202
0.011325
0.016073
0.036254
0.039039
0.041388
0.034749
0.037841
0.024085
0.040949
0.031168
0.036934
0.033998
0.028541
0.036479
0.029414
0.028601
0.021691
0.018496
0.029303
0.037635
0.023875
0.030193
0.012620
0.024039
0.033377
0.018329
0.024887
0.030675
0.015211
0.016612
0.022923
0.026907
0.025547
0.021286
0.031304
0.039353
0.038384
0.017356
0.020991
0.033231
0.026411
0.034624
0.031957
0.026276
0.023709
0.037814
0.014975
0.021977
0.027592
0.014449
0.019758
0.011408
0.009259
0.016176
0.020386
0.034806
0.019974
0.010929
0.009691
0.037546
0.029383
0.018347
0.021492
0.042019
0.018401
0.039535
0.013254
0.017830
0.037578
0.008713
0.018669
0.031754
0.025530
0.016591
0.033721
0.012710
0.019627
0.042667
0.032456
0.030180
0.044241
0.017231
0.035190
0.016307
0.034643
0.021754
0.042234
0.018246
0.034875
0.023256
0.024053
0.029788
0.034542
0.028520
0.041768
0.025686
0.015246
0.028113
0.017884
0.022508
0.014328
0.024455
0.020403
0.037520
0.019682
0.039576
0.037591
0.040442
0.026605
0.043859
0.031140
0.039174
0.032604
0.019037
0.036496
0.025218
0.015621
0.035797
0.011228
0.011010
0.009926
0.026954
0.020130
0.013223
0.017752
0.032864
0.019328
0.031478
0.011624
0.019996
0.030647
0.009292
0.024385
0.015983
0.013762
0.020581
0.025924
0.017096
0.012948
0.032109
0.022675
0.022754
0.034399
0.023104
0.027616
0.011006
0.023627
0.018080
0.034304
0.024209
0.027136
0.017216
0.015619
0.021760
0.024469
0.018831
0.031042
0.017533
0.020171
0.022249
0.012599
0.020306
0.016770
0.020028
0.016548
0.028644
0.017991
0.030703
0.028153
0.032621
0.019391
0.034593
0.020419
0.028103
0.026498
0.024174
0.016799
0.026810
0.015539
0.028609
0.013758
0.009660
0.011201
0.024073
0.023888
0.017333
0.013796
0.029077
0.011974
0.029499
0.016421
0.009657
0.024764
0.019403
0.031200
0.014609
0.014677
0.034842
0.011867
0.023227
0.014137
0.026028
0.019703
0.014831
0.021838
0.033466
0.011133
0.015365
0.025292
0.012071
0.024305
0.029535
0.009704
0.021457
0.018793
0.026949
0.027642
0.022099
0.030206
0.017753
0.032816
0.011105
0.016422
0.026329
0.012995
0.028989
0.015470
0.032768
0.014661
0.032223
0.021315
0.016852
0.015497
0.026564
0.028245
0.021733
0.025747
0.008279
0.018763
0.030792
0.020313
0.018082
0.018511
0.018312
0.017362
0.012642
0.021520
0.030722
0.008984
0.016014
0.008505
0.016589
0.009679
0.019157
0.012839
0.029841
0.018595
0.034326
0.008833
0.025697
0.019315
0.038556
0.013614
0.010649
0.012706
0.016371
0.008231
0.018763
0.037525
0.016534
0.010744
0.017907
0.008599
0.017393
0.026649
0.025850
0.035733
0.019034
0.027962
0.021614
0.016172
0.016855
0.008702
0.009979
0.032216
0.023780
0.033304
0.014123
0.036696
0.009656
0.023240
0.007573
0.018579
0.012625
0.015917
0.010110
0.015060
0.011914
0.016884
0.019655
0.008670
0.022523
0.012378
0.032911
0.015207
0.030115
0.029545
0.028569
0.022179
0.014464
0.031337
0.017488
0.029440
0.016441
0.029331
0.018014
0.015118
0.021954
0.018450
0.014344
0.013890
0.022249
0.011115
0.014737
0.025059
0.032105
0.034329
0.023791
0.016351
0.024364
0.012742
0.025770
0.033231
0.018005
0.019343
0.024834
0.018388
0.011170
0.009504
0.021555
0.018196
0.021991
0.024874
0.020338
0.030306
0.012255
0.018189
0.017203
0.014229
0.016532
0.011327
0.025892
0.016398
0.028276
0.016334
0.029550
0.032311
0.033379
0.020736
0.023980
0.028039
0.021768
0.025510
0.026314
0.019757
0.011311
0.029057
0.009284
0.007669
0.012702
0.021376
0.028153
0.009007
0.016123
0.008507
0.016713
0.031815
0.009533
0.019267
0.031165
0.012616
0.029978
0.018259
0.008788
0.025896
0.018526
0.038922
0.013720
0.010683
0.012625
0.016493
0.008206
0.019009
0.024671
0.016434
0.010542
0.018045
0.008429
0.017465
0.026721
0.018627
0.026873
0.021281
0.015874
0.016902
0.008615
0.010009
0.032865
0.022832
0.033182
0.013959
0.036607
0.009462
0.023247
0.007568
0.018720
0.012718
0.016070
0.010046
0.015158
0.011779
0.016835
0.019659
0.008237
0.012045
0.022275
0.034208
0.015309
0.024895
0.038004
0.036132
0.037922
0.029762
0.016823
0.021741
0.042368
0.018612
0.039799
0.017931
0.037715
0.018644
0.032078
0.016695
0.025833
0.016762
0.034092
0.012932
0.019215
0.042976
0.032826
0.030440
0.044474
0.017337
0.035515
0.011955
0.035007
0.022015
0.042449
0.018285
0.035034
0.023525
0.014260
0.009453
0.023104
0.030043
0.034940
0.028549
0.042117
0.025987
0.015418
0.028402
0.017088
0.022083
0.014378
0.024741
0.020572
0.037885
0.019923
0.039974
0.037986
0.040657
0.026897
0.044166
0.031429
0.039511
0.032745
0.019071
0.025139
0.036805
0.011129
0.036092
0.008986
0.008014
0.016152
0.026768
0.030794
0.018133
0.012213
0.019335
0.011625
0.031399
0.024459
0.009125
0.028439
0.028558
0.022218
0.026042
0.022770
0.017620
0.033991
0.025100
0.013989
0.016427
0.021163
0.012764
0.018035
0.013551
0.028147
0.021271
0.022878
0.010482
0.020087
0.010408
0.030573
0.028885
0.026511
0.023986
0.024475
0.016050
0.018036
0.028636
0.019520
0.031998
0.028675
0.032327
0.022424
0.022262
0.019143
0.018454
0.015252
0.016371
0.016426
0.018311
0.012297
0.019924
0.018913
0.008725
0.024338
0.021569
0.023488
0.033746
0.020364
0.034477
0.026275
0.032196
0.009866
0.022107
0.030582
0.018295
0.022936
0.009121
0.011788
0.031286
0.012969
0.008344
0.023595
0.030827
0.023891
0.024231
0.028894
0.030190
0.022310
0.027242
0.017967
0.015326
0.041363
0.034437
0.033306
0.030743
0.030625
0.032829
0.030362
0.031421
0.031750
0.027025
0.011635
0.017314
0.024556
0.039496
0.046188
0.027326
0.032617
0.039826
0.032333
0.030565
0.025312
0.019624
0.018848
0.036960
0.027411
0.019820
0.029992
0.030347
0.012244
0.031821
0.031200
0.023003
0.028664
0.009106
0.012783
0.022893
0.017743
0.038316
0.033037
0.028757
0.032807
0.013778
0.013149
0.010264
0.023292
0.036128
0.010860
0.016720
0.029642
0.033301
0.032220
0.029965
0.011230
0.019069
0.026957
0.014590
0.012078
0.026903
0.028061
0.016700
0.021730
0.027136
0.030972
0.028682
0.033992
0.035498
0.044097
0.038268
0.040497
0.024619
0.034717
0.042329
0.029491
0.019172
0.023543
0.016214
0.010827
0.012407
0.035580
0.017284
0.029729
0.011731
