# vtk DataFile Version 2.0
Unstructured Grid Example
ASCII
DATASET UNSTRUCTURED_GRID
POINTS 1108 float
-6477834836796792228957481388546206609781377293441906002844893963544394426618546812778702117780176217925399721251819385733052614311936.000000 -5089980571697015917888413558925274756174300956404500065531520782616649363182507678116120647315600588906996523392355753618966065446912.000000 74523384473188156271875452286310896539950676856928226741704070455806276810903001151167353977339715158451184131218314029834948313088.000000 
-637579890552314577243806362504254060327031301911971651591689553000002358701156518484697294182013126569492346522878077116181735538688.000000 -2073621384595487174116838172958121747556114623365973324567089542102194466309013595830517063627326396057988609412089884097770204168192.000000 -43776261084669419747141033455175131384305372606339763556265276411355493965778218688529061876022561738992069125889302740476964634624.000000 
6241315595897849718904644864362519254585557974529931224988472172667034260666186375826925502892164686944752213043958818843687196295168.000000 -52712604659792566902070320706729138491071437189728823198137490721805368657628178622922131660726160574757772949751849290160075177984.000000 -99300667530236655862136941973327224782534384752576783918929531821504449854148957520927287155643924038568663151431576983804816916480.000000 
-117159883811912283660381979193374036218604903313317030814487008244716342295548461583504068033307399247527887616111990144265065857024.000000 -1268470137894683512491877617182024121611926284825031152796394586243178213762887880740228557154511022207864935210625995243187475578880.000000 -17052256947387027900390845571236106109203411321024189470152206528304515486945358803932880491438481051509398113991137599646697800073216.000000 
-670709318163242731822747371156032964529140323742309138577198917186379955260954261227082612848045223488782458189337464773652047200256.000000 -3708324584450937921659743523222913736953722107589935193086759169370414559969311599296828382788894772377182953924948552764760856199168.000000 -5012414883551772402292339372803325425690714209548211822122182803410508753374967716023211174658236897497093817730863781735254764552192.000000 
-606356164173893378215780458690819279425938802406845981801480144990691146848608145156721658994523953259322326570663917203839059492864.000000 -183123686486193517364502561358275473514879596912370157526287904134950802377915535411313830926461988022018016442449384420709219958784.000000 3585685618574401837086761332054897266231684324843978279639162860225886456151056313078487283502407912729308051505500307229981976559616.000000 
-172973680045216691168355451449738082454805611703832183429744522329037416841130550705176666221622445794678513085768986695740466135040.000000 88744078278730841782151280928826032229131004920848837223417886054211749498722529185278038246461226307341734305955393835224952471552.000000 4224975041392528614450004275543557142621449569871365074840498485135902562489804738837549791347943088733159789917040618529548278956032.000000 
-3642022739239143860337737505784466375992522026568619951258497402326812375945347853688016187193982743361019467571303729349807596109824.000000 -173621278345745765152584988177024925366743078758899474078879989836411322641857073798886004814461135442172497786519945890578300928000.000000 -15093834485231969529374932855365390872798400692532112422620772981088361374111770239228526596264690121184552775197622361398804742144.000000 
-390922344734400257071031567381207079878229921077605055627907709131820011702669225620036178101921440483845770077124816221873492721664.000000 -20177174192961370015875210259726589174259709803870950336333543186978449886196491246997000403107002504307417036505600295106447933440.000000 56462923233242636812108348746174757763302221835906447149539575015409063787878438808136433030110674745021765206408089480947851853824.000000 
-94900531333907169046033568573712495425139277052163833155579009079210985962015571562071993453910337894778693265597074209629464952832.000000 -22168158570555802680433393399276025683150360189382419429859020931555910165745588933229440718589139595767221075671666284067100295168.000000 -2387573731648179534736826905922609332322412101617769129874016323486470894788248789797632443647208967257891407627846196851570592710656.000000 
-418820520736048620462709113571112658785083477183291678066580688106717263581905048082046202940142157944961966028458385284077476380672.000000 331725210985311006089882533000040976516015154876717454727917859713883879193271937416634909149568340892988027603368682725311151865856.000000 1666046536760532745310963262885727521019430980037863101125418336733335462644329376743234370072122911570343275288043913173617531158528.000000 
4840077241154230824180776291364583248076230981722331291225816732835453293724267597084047591014794615987340613811510606214150542589952.000000 1106611803643625282857111552707626699361111623794288048567846888030892073450107514621667213663804163034798867674379986431482987020288.000000 3105539518700388237295697488387004195491761401800735240687366996896923730242595237264557340302190608081882375451974956789750824960.000000 
-468438594838332743630840260652123444957642913996512694688373070794405942879701632633526758749113931776721690384153795795513688195072.000000 -4120165962913540486328437274339270038980714122638140117208769353149044378826240881766727503453640273881408289104457348917108639006720.000000 1870520594988112340682429937898288477025056054144265312458391958746802487958813298895560074828536611362178963644350455029325147144192.000000 
-515775406901378998555724488296419221008853285439430114847049698666574810037637722960664770577572397804455743581891391954199389405184.000000 178217407642057564498817283839231733620008344384179482455649415470411213993576934812658391543584314650479491284124485872760490295296.000000 -3380371395564990953972039426672143126442619535614567286978694659750679988096226852656522831823482287864574575327629620469922994847744.000000 
1828770822296359627092571111464774812954992548630435723554206013921265101420956359473936214845067588285444357100009832544634012696576.000000 174256402700789081100194768456046173502204706152175572221750186792500906571826413668795053152363305975823399286783838462848855441408.000000 -9377520059671394304269132856170870786523819160724471804989888403991411096198687299346009011712175549559614581245782898314821238784.000000 
-701071048121144026123185972648464021012870729961195945314077216251857761240402312696581432005798026161566786415492802818305867907072.000000 -187175938336744618016405647679465754537831630005072690329151890414358069857577007678393734217297455358285709734652802035203627286528.000000 -36436512587113203257803223802144067442877970247344059733062416712817100827001577641644407509628633936516901210526410438336952926208.000000 
10523220019972209069326322403736640485441863882153566887054212183342370548920468134212777548264429885736794508788922952659312094216192.000000 4210459582092769804986568405867175476824757201332712432593952571912065743054435988593405067873662148941059152791882329921452316295168.000000 -71484131117915957794351651749217313002716551162918981191976016534136503340746238092927277233963192643088082514991155967536685645824.000000 
-6495290049024245286944294971382436379321097555339180353541463673028688344739172946150245449227345789089656554778318583069763514138624.000000 50602584180457465151822609986136601047610947982135954364044450214445585599526168926973365111630039913558847940208471869351897595904.000000 1126556205035368511049945380708682578315194204657081098152730748878136952182772782900761510720778805459646445703861942132561143660544.000000 
-7886011643197812239735223094250095593568733993274242560447545898891308522914945385114382812891661944872730585566920956293193469526016.000000 1572539646000070364170630224566144800730978902780803246393625563167317438607354433634976611613376216569390266162775639538765421084672.000000 -58631585539657783168134317993801479017380400970216326683351637515846786964694856114362694753280564176196309118590208124591691268096.000000 
-476407569348207533714797382472570217835994913002826482376410640911777104427824371768917097160386793304718951684104422940871736950784.000000 450956898278355622272037807288293567074878467388580167176195363252759388259105030967649433689192444522682543569814763397712961339392.000000 -63192917334025287092146736049459520381079620936174370316418134385914696689881191785288994283231156829088557310667453242602980114432.000000 
-802805817254479093621464727576932747635240720657814127663645686530301020155014285609505516461730357984169327275189615318152343715840.000000 -164904332358228714433932676528727050049820489875299439464932423332075790634866754282752227060332849140929698780223787710655760433152.000000 -104832685888930694247990062142836350545769665484683941970835481024112590916896613818702989711796943488891913346773720574849487732736.000000 
10545888772071308583090052452825079212532049948767142452913774947734136771739159355688388769150273614685142246575128898643783894171648.000000 274595973895472409963554184790998543870353827048248930275859407207431401601816663978810640530235864557307731981842782492923944501248.000000 1871196940704087435347330939468114676003510143091110399879482442842837431741771650811997691380091156678222099131205111252976324837376.000000 
-13137167711896249896494122972461985427668919846383416111163851094392528900589348720211283184627489608391325049629926139640821810462720.000000 -263461644010983943090826377720258912717637073603430220513762048584137438103128088659174153608275028134896292698509906783929836240896.000000 3463523676926545989078528356083531581315877124423991186461061086241288558376541526616752250702892614702169903795998933017699540795392.000000 
[...]
POINT_DATA 1108
SCALARS u float 1
LOOKUP_TABLE default
8238677086031745485185669980007607006266325360726695704598067118790378049296977663066136888468401363896018893340800842016416860209152.000000
2169868688313410325773058898774074105262100628672742266672244899327744727463949641994350355775644390187074762577944716961325676232704.000000
6242328060015726040625724368600365115677271580542111565330136596782927751033257678570029464546808526229076323145822824584874861527040.000000
17099772218623689673243165319330305138664447389199245039239438312120872681270685707579509425758047266084233512313484823290702498627584.000000
6271030631241211873415007486340819687749778747189564670550839839376482526043803197445582716770413517894097129978376233063849591308288.000000
3641200823579394655864379274856842715761104735486786598478853786784446657283032503829249923178903797803369871465479613288681612247040.000000
4229445531722535689864191251229550591598210924400963142485971626063873311035992145893055575556439767661880821537821170106646954770432.000000
3646190039653566318538870044358867118778940527269620343661295332136581856338943557393977737325666030413582653049348935334855673118720.000000
395493943912036958077296119501832411943364079919611020357299138986262834534029198330794483356850392760014446526120533595230341955584.000000
2389561855687833029046243957596790591872034192566394114773081517496363170293057778639808234808302274750148931995740458957446674644992.000000
1749618045987360435619736033671325952065263188367742603221837753300588435484210550814918861462321975534629843644066057900265587081216.000000
4964972006837324870682024013730761976670475170422275207209425076382516741881785127266797291154707222320548941494029496306685416833024.000000
4549071287126642997847514500086900138788979793609995575402172696237436649320834921348468448228965143173572689256954360158002941526016.000000
3424134414228644528138125057586540925376403917788234864459906736264495301494305532693528260007641486711001891776144554484499862257664.000000
1837078101836498676254569268491061982202188511584741829969508125066053603932690256401880903626750830948700363562530612793487191441408.000000
726541854166317850118774076917017114276029597458202378128040234167206591011283522259388082971878574745406906620650075707482321190912.000000
11334515404823551051410474112122146216156723626552456967468129410474410681354650027405224946674756786638655112267834948947589042536448.000000
6592456471269476864443987195972122765309424998274981846861119190690905766091221479766095981617954372674398554315395209822003754172416.000000
8041486071474375386787174152169916626698296193499248325012073229193066184913454763273990863337879292982051892105014794966130432671744.000000
659029317282840831267190542960461227134466297906888795175858999603183062206262068558026881674632039848596179674244315035243967938560.000000
826244825144964132883242996823217459615765467176015160046952073937813782119199284196266622028480504007970676261314334121297514070016.000000
10714128566182115244442686936617853737333718411350376755580169716602667594611477121149844157522787848304563953184011218018884596531200.000000
13588619642516494898095458268314098668934391982506029630940553744140604120420285403468433536295052686657557423622473072354912083378176.000000
947222065946544420598538873532582987523783299545456699693114749979546020223740483932114465620810202380808781276486906829021569351680.000000
3330005032334109908148042866751339042110056741370880878873582723709979689725652876437330857239528630916904869538348990032098894020608.000000
22181704141295119804948462101022208265224834561726951276716186714832958837433150180331383477698563787717650167085902575388320235257856.000000
6981929886435924990976379811079737525151090789297866857139695951961254391719466015908082066445754945318930407027823957906620915122176.000000
13975646709967270369422045336777207599647557712256860587495883337574560658154604399568555200360434221807405875807184770873498464681984.000000
20394834988931627820019987510614605653158820932352245874345500561336043608533749181858340286503520611561312599978293097477212827811840.000000
1685997585965089306161368549817992793896198934536442375964258606973276638080348790852564760280318040782704645322622601227703240622080.000000
588199144923481001260809357968435236178077600022479803716630117213527866135693975042645522038825486802886953689759023720858503872512.000000
279178267246236343433089261864472556190417920092034869303168288090394409005787227742349903265867716136136020620562702928080938205184.000000
2222175733977938894582901416705205391025954922155661574579042678134409675845924164177501498327887417565680485692701231218487780704256.000000
2123497006845416615102881193499621366119048619965326461622155653450490367333286127981371593215346043241973253223316550920429941817344.000000
2593000737843534328068494588717994489126835555298802253745641371789571665713074916293886906532196510040554083588315653124021997797376.000000
1709835026695697401002646411000710884748450868437777273346024788681647440402541261732286331866352323572081343639034622202153810264064.000000
6957849853988477868309498140063406689323744629477313478887143647620781335624188737257086761782106436764579569181484914936364109135872.000000
4405462402415373246599216384408394150166728427398979565705916071008072100424843876951634429224281705419823853184973221485470782849024.000000
2319777967607569836659135102528026030902686921836759287034705700664902546407910054106362383963834875506510650064525967347686932742144.000000
445460795602495064534862868633715431755494248307529553390050660148817230158364456835419471889766908940405150736907420230095105687552.000000
3099348299159697219142604204140786077096491184846830646556986597630944593241397672496324738748488734860256997542978435657594572898304.000000
3065705607688406456631627314318953588433023717162241410777397871190588990649060062169110416860149785761101968925720075988216013914112.000000
2738573763121422123745895991128684879342970029992766684619127001226905317288514210695817688449693557551506278220652107946981616254976.000000
493465360774073343020834344056162384054042305567671145969825375400197566078485942688934472878869536692624042116287841826816575668224.000000
392026450350204993860182321375347627202415066916891621940561407951698797500078147972186847509420081801992569604385680903284115636224.000000
5527310004977854853075577127328839885697298701142715991594505124960628026706478590303156020937482737525574747891354533573341166436352.000000
2479368281056951790134392964317034632365221950131296453411001332376744074932832220217336820326275333247554092277545676820896978829312.000000
4531578638399613853161757898926515679862164666368073626287856897896616695917246479615584362565738482416968378784595991582669526794240.000000
3144989737611440160091490158769754713765843101121069605615606864411448653915158423936423772841834544301189685968492923879403447910400.000000
7276107538611018494739112248794145950182633571622275236738953381659021225396536906350316804323148966268410083316896647945129562210304.000000
6709450312711742109240810564105067152819121301341685890660912612255082665454787264887508835021891658206903901220522286318393606799360.000000
3004100468680330131783047895718477872768318794236926198656073726225267076396389837123429470421635364650922291588569229664397662617600.000000
327169756601845568791841378440090093336411429034876510875088182098591286875123287627189124189613886682793038067691170435155070287872.000000
5182064902059434405670879602966501867633143573510967844998233446353087674206774552069346548076010318863600874054334481449880154800128.000000
1334236024783478375321361973957682531455678952638666224979552648767777965079191972902915030871477411396622150961118550662323028099072.000000
3081128097028097618048489430157776781565015932469621937708524387427761906085353061161215147765245918492196210753663694875160844697600.000000
907816870797700597524627315329961921248300159344501283458278612210244914088157653276998645202787683239679954020019457565681397006336.000000
4841149888218107497169890251570724626648270341032465409271007812909317516246925806911590298145322237996622133844335584855363185278976.000000
2545590997364127135002055517706669093215940566302849531227612894920614114442237384506364150207164008223914124212511788204548956356608.000000
1181167814167376167849425122594352867894897715288489243902097970072787320787549672984405850489676115548472365930818740479673866649600.000000
15143196307570226577903007050162871173181191701588880110938677360808379850974746635604720059375590670073896856541689843869936265461760.000000
4806754413999633870550370104164660095401611721468973594713610419196722903662335463979001874306061525751613895677223864918840302370816.000000
1115440584393046847404175056877241584182854792133521797465958755312808973488599400827668035977058987954622031715796568788755523043328.000000
7525350358414263456779776249189306901230190510022908598332647135923689299124308759967137056438408997503013169286231977332969813573632.000000
1503477142691421185512063063799829312419304222141016146585812414193698267276008258639369940615168307792188873213511617693513081159680.000000
710824251475189372961787292079179069109968146389828427882304811159785959130301932568271436340977621170157998808174715327701384691712.000000
5942208288306930876786458954761209647589697429780467159734627188439055712630391119641372863524543583096885227842680172830219925716992.000000
617377413662598643276344942703375358840490513384491138103495335669750515991815748999514124672992169359913086991524882506684271951872.000000
783617672079533038748789938318652255822347168981265362819233229308076956148653091646635560810402268718552611575650668081230611742720.000000
5665160288890331002131991906279536497912012486407292543927532663276634879453510140523527075523331610154447068574175290629652456931328.000000
1309813050138216909850204282090940454603446968199223600294345547257411465252299214975205276081836090499104846409673297025014094102528.000000
2316635752658848550304424958292782945652598348313497457676974673244598090404049185253678882617647817613300138563415676639855719219200.000000
2733378303650690345406283931905638800937216259558043465948801367301276583448940820382559005632831938114424501586966517952809109815296.000000
9364281361648726807160535548389116307664350684825094126091043772359070612972783988461752031201120933536435939194840807054231912579072.000000
2192754178026699532624080434981777287172666743181571125146230385846070627213543867716988647839645834527201041342179487303054582087680.000000
3630749640779856176028432256912382703400541092677725120536816642441636167805290448304065897412929933139447840068164879479102458822656.000000
3359773442561519081210827979674835933274119444614871634276091729933248041031413578840986938413017036455615102086150915193844527005696.000000
3988279727809891571489654139305626279824700971369151584847999819105678001679590245210766511987745315432548725042348364369693849419776.000000
16728948254772399844082692952724205125281104734632038748993056472119474827046021941064627006496684181024863946797055109124510009262080.000000
661901886863990486133339282598112393936765417399071428606944750851626084363195576752465391382698115545292606620216867109399492034560.000000
527663489447265544015660268353503206677963717369120484337467693752570402961749642271497725292952166741740843224866783683002570375168.000000
1383056298190451617403214844890595364516397127620809808454066761560983890997400283334209681150713247602153891109886457580955403026432.000000
6771111052017983363945924924139634745812610272540927118730508733258698760589077836102893741753652730305316736411466695045372205596672.000000
10043794588351387202993270734863111433629621125321279650383999355346335872610634904367709408577137611002778084936964112016265973858304.000000
7579846564329902458451408035664077445128127173639662419718310932328203205649243864262207905859361315292310395996572156182089737175040.000000
23408428117242583383413660765857086597576318424294605122970735303211154666764466245705347444795182907020802062060411623866450728452096.000000
2016760577550562948604913848772503025840294682556937926144363755892814845761938090135807640846930919464968204029372760408235857412096.000000
5057502765045503594220924331622938600335222624709406102128116436593844633941794828912983939873867571468978678647383902825357986758656.000000
881675219871343608599670036278871697852520119651113574479999971069270810356722860590262049635505804611811338716963025726950225215488.000000
1153397646701229949696703382489930467365558994601859803888998438387647097424966774916010547238183834381195293955204390324076120375296.000000
1721235030033487997423278689994902845773066751913363727870365952814607723106629833825722033314889853036396253955099998472551270449152.000000
467843078269902958272552585378481617497231950784821960696408043753071460384829691006202363526243322032101855317479487636829483565056.000000
6385801459005562044912521602211577939457419098151702096757602907860521681094762452968875375673395078486311986458821670474126549057536.000000
23804200738677792530584850123201783061847687201081087938757205200484112803990991165200579144129234995478940936280575144747637032353792.000000
1353520116838601934609318761196602010221426879260879164109796328093915793690081060920826664725990288766534371591807971759262716133376.000000
2200574501407284680761644552084206348610654814432789034440519521228717679150676693233229783621243725357942273624421666434937465602048.000000
3000959473342003728969920725153142062818315083211249724492875838669078186605303022882350993308178218962557646407154070454810213089280.000000
6056226282461816747287890782143770074758450013273838561618194975242861421556277955726647037014167344381828509069955578750488755044352.000000
573769584913652170581144099957858699665419181251266294902395639181041250622249059193502154238984968798663015641611460526701268697088.000000
3808660750590152469424757353525140284031233812572738745321453866233692803805679665236320257008114330197880979495787160146855688404992.000000
657177532467331331645307051552588609886701072704216340468924494087040517926411376201228498880929277570922547544430043426537525477376.000000
6371907063523259333316476056868631917359653293870685769248404404239045510103112560895549039243534348052677007620489544535333341757440.000000
4325508037674046644293778207139360408836038950277481944624993469454013572307925978849631918894207347186105881677094363273488177823744.000000
1748279986638605059628875287073099496346868868696329380860724946137587838337566957745772733955679713627759305650660811837844068761600.000000
14706062493607662450332772002717542606597058023481060955525320731580165337344818100451986477098481632518062161054076315520243605700608.000000
3353796037548456428920253633781960658586023439408253953901274874262431462220989647311653330070086538782101912924947750436149265432576.000000
535434763843031613446323554936894679551772692547666937093857001387547068893380356906058289516445522225796564959100112931489163771904.000000
783641182139830838657640991305305487933301710007918121677226022161705195049872977960099387363279346156743780204266283030406743719936.000000
7692433321423918745623056282108834426595233706518367691823606730519047907638115451578787108998296027685237395988853390477632926121984.000000
484289303692900215762280235006100219329243122789615157198118867715427618070885562398882026969995820362900671892066004319208153808896.000000
2973908808783439742169208596292014250506746959259339328500806377556312095067294914975802227071183669546154267494747872353392984588288.000000
11021955033228126596661764367160916325339310588487525214866009466755651286074325434534557721438211630570844486412212092343016931459072.000000
13345934826608884354080314593802415054371785816113699462636615303165730126450876268337780591599556142467387600534689126778747102429184.000000
1106377581475979575712913876527708131531579120233376594343746976736784060638825565525475781017922068568510074151111360976090006814720.000000
669097757948117079882979821610846146204675390517656184069261846175828648296278668901423519187401268608823629978159168764538444054528.000000
279989189709867306838110520424762454822376660402227004578128076046843372376291023257341734320964183102486652031520047753490994298880.000000
5723936221055040032327549866141769559026194258985871016559084975256921309060393805518316274017253778182228811558757476612098211446784.000000
3753215236708709067926784709526944066014834382152987433295655051271221785694675968721679035821333572269357764287385077048360686321664.000000
759536751004705871239116344480985126005255371680961413141714755451593386179435903811440703511170471549041330070838895260692350238720.000000
1710406256580544163836690510815082018905556280541116940157678124749120440009775744230800548304431120822912317148290808334643395297280.000000
278416797237151362742459722656866597655918794682765525238491685398585236358041973374006287215187566475911971211625282085539933061120.000000
1158919394273415412931858060974412953044291490992713801757470065156436691672785911335859095798581195474486029325786758516789206843392.000000
127068302470307907620697177247487832622954075887441772851564044630934684813859490987178089337890593737753940407264283009657050497024.000000
1804318961312759241662255943745208510143350891730717997514331274379177465604846737588869343028356090193021061764087635097093543034880.000000
395335527286331206761789401006008236566821952806538869421180617858997956820930786733602084687171353295524095034462035333617794678784.000000
272402559472055719803632888165688989668956805752467909015090779227276772165416982543926780659652163338628558185203571105339665285120.000000
2678358664992667193163028840621533842886424440768420498228742051958797378868668940938593369286938250816518534184868916398588294070272.000000
132967639957953621821590936688855687505881962818423086694409957511747975734899662406970437284653895649709489630906380435448794185728.000000
2015998929120228653964198211326796007024406270866697957096717826254434859646416412616260301490406245442073403537524144969913523503104.000000
11229186955646709353430824018613435617673053664160477416272922968279897347468581926862512537993663773184988372084990158216924172910592.000000
2869686262922644653210911626789373574712157422054812730243405379466807557885119359187605568851776725323295760500043222096770404188160.000000
3198793089965797922160175546065296376611149516483486941141609815109627813042674132053287911662888635903028477078971927745123057664000.000000
1623385691689673961328054388299421445190859359032066800868886264133320149023572077918114498010539482854479146761382623143026808061952.000000
140821736054209850040148481654246719758462264198988118825388696935117520659666655130925389813061064906858067241117807139892620165120.000000
840754088199550423777245598951760478471269933415659806330425923746135059114482487834215117296262226652550851614366596889657280036864.000000
158062956920892155346712457829468022260010428030870716054534979690248494380886200159283744232258689271490391230835435280943688974336.000000
1611918320037801888483111562177576641758328178384118031520676796680130932349103470028128280219464994512920338090337298077035607883776.000000
1913679582985040853020704050276193127697436747374695993685925940983028942228364998998376499594613556437958202215583956600797265920000.000000
6177962007449681003439037710554607725286330490064242164898129185377153569361829183890427596627634539211430543403249722382634660659200.000000
5839543571843338113218087634728150833652534700945258098156233230542708807628882472333016739904512043042398880741133846734205263806464.000000
199901150295188800726539112760885644140770786236011875208238862020675308495413946846646435232080940710226741145182405297812549926912.000000