# vtk DataFile Version 2.0
Unstructured Grid Example
ASCII
DATASET UNSTRUCTURED_GRID
POINTS 1108 float
0.995529 -0.005794 0.000951 
-0.995599 0.005713 -0.000894 
-0.005770 1.005992 -0.001579 
0.005768 -1.006032 0.001594 
0.000945 -0.001537 0.998239 
-0.000965 0.001598 -0.998451 
1.195803 -0.003828 0.000631 
-1.195807 0.003867 -0.000592 
-0.003822 1.205664 -0.000985 
0.003903 -1.205716 0.001040 
0.000611 -0.001024 1.198348 
-0.000601 0.000992 -1.198459 
0.974380 0.189718 0.000587 
0.916129 0.377699 0.000285 
0.823176 0.551285 -0.000015 
0.699054 0.703914 -0.000419 
0.548199 0.830133 -0.000783 
0.376035 0.924908 -0.001085 
0.189064 0.984302 -0.001337 
-0.200771 0.988632 -0.001710 
-0.388351 0.933078 -0.001810 
-0.560734 0.841125 -0.001805 
-0.711304 0.716251 -0.001735 
-0.834161 0.563797 -0.001629 
-0.924336 0.389883 -0.001445 
-0.978772 0.201406 -0.001197 
-0.974476 -0.189765 -0.000555 
-0.916192 -0.377730 -0.000311 
-0.823336 -0.551338 0.000049 
-0.699201 -0.703898 0.000443 
-0.548238 -0.830051 0.000773 
-0.376010 -0.924798 0.001070 
-0.189012 -0.984321 0.001372 
0.200822 -0.988666 0.001752 
0.388388 -0.933043 0.001837 
0.560773 -0.841141 0.001848 
0.711390 -0.716255 0.001766 
0.834165 -0.563805 0.001647 
0.924400 -0.389948 0.001487 
0.978797 -0.201483 0.001253 
0.002095 -0.197355 0.979695 
0.003104 -0.385781 0.923701 
0.004034 -0.559694 0.832229 
0.004764 -0.712187 0.708585 
0.005333 -0.837448 0.557423 
0.005676 -0.930340 0.384668 
0.005911 -0.987136 0.196859 
0.005467 -0.985956 -0.193628 
0.004966 -0.927910 -0.381202 
0.004231 -0.834222 -0.553957 
0.003346 -0.708777 -0.705248 
0.002404 -0.556250 -0.829343 
0.001293 -0.382495 -0.921674 
0.000129 -0.194114 -0.978756 
-0.002024 0.197278 -0.979832 
-0.003067 0.385755 -0.923883 
-0.004008 0.559647 -0.832215 
-0.004711 0.712129 -0.708529 
-0.005270 0.837398 -0.557391 
-0.005624 0.930291 -0.384635 
-0.005857 0.987133 -0.196839 
-0.005430 0.985964 0.193695 
-0.004937 0.927940 0.381303 
-0.004267 0.834361 0.553958 
-0.003368 0.708844 0.705266 
-0.002483 0.556280 0.829366 
-0.001354 0.382562 0.921587 
-0.000160 0.194211 0.978643 
0.976843 -0.005938 0.195629 
0.920622 -0.005924 0.382792 
0.828892 -0.005590 0.555309 
0.705303 -0.005149 0.706597 
0.554486 -0.004528 0.830705 
0.382255 -0.003584 0.922812 
0.195326 -0.002520 0.979386 
-0.193499 -0.000314 0.978645 
-0.380228 0.000719 0.921412 
-0.552479 0.001984 0.828900 
-0.703460 0.002917 0.704599 
-0.827291 0.003880 0.553283 
-0.919334 0.004656 0.380819 
-0.976159 0.005268 0.193735 
-0.976858 0.005883 -0.195569 
-0.920601 0.005913 -0.382732 
-0.828853 0.005541 -0.555251 
-0.705260 0.005123 -0.706569 
-0.554388 0.004438 -0.830765 
-0.382286 0.003469 -0.922938 
-0.195411 0.002523 -0.979597 
0.193414 0.000448 -0.978733 
0.380318 -0.000731 -0.921507 
0.552492 -0.001936 -0.828958 
0.703391 -0.002939 -0.704583 
0.827192 -0.003898 -0.553258 
0.919306 -0.004744 -0.380781 
0.976159 -0.005380 -0.193645 
1.179159 0.183817 0.000462 
1.133936 0.366630 0.000255 
1.061327 0.540311 0.000054 
0.963204 0.700958 -0.000138 
0.841619 0.844777 -0.000238 
0.699318 0.968279 -0.000485 
0.539717 1.068391 -0.000632 
0.366571 1.142595 -0.000768 
0.183900 1.188809 -0.000926 
-0.191861 1.192723 -0.001076 
-0.375415 1.150041 -0.001212 
-0.549998 1.078558 -0.001205 
-0.710626 0.979704 -0.001278 
-0.853234 0.856430 -0.001149 
-0.974563 0.712247 -0.001068 
-1.071423 0.550525 -0.001021 
-1.141404 0.375525 -0.000911 
-1.183096 0.191790 -0.000797 
-1.179268 -0.183876 -0.000449 
-1.134017 -0.366750 -0.000194 
-1.061415 -0.540345 -0.000029 
-0.963315 -0.701090 0.000146 
-0.841557 -0.844902 0.000255 
-0.699257 -0.968297 0.000521 
-0.539680 -1.068322 0.000642 
-0.366558 -1.142535 0.000797 
-0.183897 -1.188835 0.000894 
0.191871 -1.192713 0.001096 
0.375471 -1.150032 0.001208 
0.550018 -1.078566 0.001236 
0.710653 -0.979718 0.001289 
0.853279 -0.856479 0.001172 
0.974623 -0.712293 0.001085 
1.071466 -0.550581 0.001040 
1.141463 -0.375560 0.000928 
1.183120 -0.191784 0.000815 
0.003706 -1.190241 -0.187037 
0.003456 -1.145324 -0.370234 
0.003134 -1.072210 -0.544105 
0.002811 -0.972795 -0.704429 
0.002249 -0.849627 -0.847199 
0.001649 -0.705755 -0.969141 
0.001140 -0.544640 -1.067234 
0.000573 -0.370354 -1.139142 
0.000058 -0.187100 -1.183213 
-0.001289 0.189208 -1.184331 
-0.001789 0.372601 -1.141122 
-0.002285 0.547355 -1.069879 
-0.002726 0.708685 -0.972254 
-0.003074 0.852799 -0.850369 
-0.003547 0.975942 -0.707540 
-0.003664 1.075115 -0.546960 
-0.003797 1.147454 -0.372613 
-0.003884 1.191378 -0.189162 
-0.003710 1.190227 0.187009 
-0.003463 1.145351 0.370274 
-0.003121 1.072419 0.544024 
-0.002876 0.972944 0.704444 
-0.002291 0.849698 0.847253 
-0.001551 0.705765 0.969115 
-0.001153 0.544644 1.067234 
-0.000600 0.370341 1.139076 
-0.000062 0.187048 1.183108 
0.001237 -0.189014 1.184154 
0.001786 -0.372656 1.141013 
0.002332 -0.547301 1.069870 
0.002747 -0.708695 0.972249 
0.003069 -0.852833 0.850417 
0.003575 -0.975982 0.707569 
0.003691 -1.075170 0.546987 
0.003826 -1.147485 0.372616 
0.003905 -1.191387 0.189176 
-1.180807 0.003603 0.186572 
-1.136818 0.003364 0.369223 
-1.064989 0.002928 0.542780 
-0.966935 0.002584 0.703112 
-0.845170 0.001937 0.846069 
-0.702606 0.001372 0.968108 
-0.542411 0.000841 1.066543 
-0.369220 0.000224 1.138981 
-0.186643 -0.000363 1.183255 
0.187899 -0.001623 1.183878 
0.370638 -0.002225 1.140118 
0.544203 -0.002677 1.068250 
0.704368 -0.002968 0.969977 
0.847055 -0.003443 0.847810 
0.968785 -0.003791 0.704741 
1.066468 -0.003844 0.544416 
1.137987 -0.003951 0.370618 
1.181465 -0.003952 0.187911 
1.180751 -0.003598 -0.186559 
1.136748 -0.003351 -0.369181 
1.064861 -0.002920 -0.542751 
0.966853 -0.002538 -0.703075 
0.845155 -0.001941 -0.846008 
0.702652 -0.001429 -0.968111 
0.542445 -0.000799 -1.066656 
0.369125 -0.000187 -1.139077 
0.186735 0.000230 -1.183330 
-0.187889 0.001569 -1.184044 
-0.370653 0.002337 -1.140332 
-0.544255 0.002659 -1.068308 
-0.704476 0.003106 -0.969952 
-0.847052 0.003413 -0.847773 
-0.968758 0.003745 -0.704711 
-1.066432 0.003799 -0.544386 
-1.137962 0.003913 -0.370598 
-1.181477 0.003927 -0.187898 
0.818770 -0.402638 -0.413310 
0.421081 -0.799937 -0.441807 
0.394232 -0.379785 -0.835807 
0.891823 -0.304317 -0.335250 
0.301230 -0.901248 -0.333490 
0.681466 -0.340138 -0.647523 
0.560141 -0.636038 -0.538464 
0.871675 -0.488353 -0.107043 
0.183170 -0.622007 -0.762067 
0.611107 -0.174384 -0.768846 
0.870947 -0.161195 -0.458630 
0.211010 -0.857323 -0.479257 
0.950890 -0.144015 -0.264424 
0.802708 -0.297814 -0.515815 
0.686529 -0.651148 -0.342335 
0.469311 -0.870945 -0.200445 
0.633552 -0.766079 -0.173482 
0.527642 -0.481181 -0.701421 
0.794704 -0.146420 -0.584229 
0.561496 -0.760861 -0.347331 
0.982751 -0.128737 -0.112209 
0.775061 -0.625184 -0.150588 
0.158001 -0.954606 -0.276300 
0.937630 -0.313216 -0.157639 
0.737029 -0.475663 -0.485348 
0.274332 -0.958864 -0.150868 
0.549124 -0.303657 -0.776998 
0.336939 -0.709462 -0.624218 
0.835463 -0.475505 -0.288481 
0.496858 -0.183540 -0.845237 
0.151136 -0.761255 -0.633886 
0.196512 -0.482130 -0.852885 
0.177348 -0.318618 -0.929180 
0.353048 -0.559619 -0.751167 
0.639340 -0.486179 -0.598905 
0.130165 -0.991071 -0.123836 
0.450202 -0.606008 -0.659513 
0.328565 -0.216829 -0.916811 
0.204088 -0.132922 -0.967484 
0.495868 0.582797 -0.637561 
0.497854 0.784616 -0.359575 
0.801367 0.369378 -0.453372 
0.395651 0.469219 -0.786008 
0.344443 0.888129 -0.303218 
0.287448 0.314020 -0.902564 
0.167901 0.164799 -0.970137 
0.755948 0.213425 -0.608402 
0.665673 0.535804 -0.506447 
0.495933 0.846804 -0.171339 
0.597512 0.174486 -0.776336 
0.178150 0.882183 -0.442959 
0.165013 0.477410 -0.863255 
0.549416 0.683362 -0.470749 
0.146081 0.959131 -0.257879 
0.387000 0.139015 -0.907917 
0.120666 0.324918 -0.937533 
0.618721 0.701572 -0.335716 
0.110929 0.628971 -0.772292 
0.162992 0.759078 -0.634174 
0.296606 0.626854 -0.719695 
0.848626 0.481985 -0.170451 
0.603452 0.392299 -0.686144 
0.370530 0.768268 -0.519759 
0.753288 0.551040 -0.335671 
0.119822 0.990530 -0.112671 
0.283197 0.949432 -0.141295 
0.699729 0.687702 -0.148461 
0.940910 0.142242 -0.284095 
0.468985 0.304969 -0.824063 
0.847474 0.406383 -0.315200 
0.870632 0.166642 -0.447557 
0.932258 0.287971 -0.176059 
0.889038 0.279683 -0.339398 
0.976914 0.123286 -0.130699 
0.718803 0.382066 -0.568629 
0.457169 0.457260 0.756425 
0.446575 0.803876 0.381095 
0.824986 0.407157 0.370822 
0.330584 0.311616 0.886866 
0.298046 0.906421 0.294528 
0.899034 0.332789 0.254750 
0.957381 0.163002 0.210119 
0.545704 0.629773 0.541537 
0.106245 0.480568 0.867591 
0.749025 0.161861 0.635556 
0.440912 0.156955 0.880494 
0.422533 0.884345 0.181405 
0.857215 0.468035 0.167258 
0.260949 0.139326 0.952825 
0.248048 0.958929 0.140825 
0.931404 0.317056 0.123358 
0.610655 0.155525 0.772017 
0.512754 0.288495 0.803371 
0.314046 0.627889 0.706936 
0.767337 0.617104 0.113450 
0.661318 0.720572 0.168646 
0.583583 0.491425 0.636843 
0.188964 0.753884 0.626543 
0.752332 0.573816 0.296612 
0.622357 0.682158 0.364708 
0.384632 0.718447 0.572224 
0.545090 0.801708 0.220792 
0.104742 0.990408 0.122188 
0.112251 0.121860 0.984013 
0.460880 0.592550 0.652698 
0.147631 0.613020 0.773246 
0.696999 0.502952 0.496482 
0.638229 0.346330 0.679356 
0.156335 0.308285 0.935388 
0.160005 0.951784 0.267026 
0.778773 0.315319 0.529995 
0.836074 0.135438 0.522964 
0.211207 0.866147 0.451193 
0.881186 0.228337 0.398375 
0.253723 0.475646 0.838209 
0.517179 -0.797954 0.344616 
0.331898 -0.377936 0.868415 
0.332992 -0.883152 0.361986 
0.152731 -0.470191 0.873206 
0.513684 -0.163407 0.843468 
0.432356 -0.894527 0.190138 
0.610405 -0.555055 0.579092 
0.267843 -0.178439 0.947409 
0.233559 -0.965808 0.181439 
0.913844 -0.381667 0.164243 
0.771165 -0.408697 0.499105 
0.741931 -0.669134 0.143111 
0.867831 -0.195444 0.458983 
0.953461 -0.188382 0.235396 
0.508648 -0.328259 0.800505 
0.571071 -0.685830 0.472937 
0.615989 -0.784704 0.164979 
0.711979 -0.646830 0.306233 
[...]
POINT_DATA 1108
SCALARS u float 1
LOOKUP_TABLE default
0.007380
0.007266
0.008467
0.008497
0.002521
0.002426
0.005715
0.005735
0.006904
0.006999
0.002037
0.001929
0.008381
0.009219
0.009336
0.008673
0.007533
0.006814
0.007105
0.009837
0.010955
0.011097
0.010210
0.008808
0.007357
0.006737
0.008275
0.009151
0.009169
0.008544
0.007508
0.006820
0.007165
0.009901
0.010949
0.011136
0.010254
0.008820
0.007433
0.006811
0.003273
0.004389
0.005818
0.007120
0.008223
0.008826
0.008855
0.007665
0.006565
0.005300
0.004177
0.003280
0.002563
0.002256
0.003130
0.004341
0.005765
0.007031
0.008139
0.008749
0.008812
0.007632
0.006540
0.005401
0.004213
0.003331
0.002666
0.002321
0.007148
0.006761
0.006162
0.005480
0.004719
0.003764
0.002892
0.002686
0.003555
0.004483
0.005300
0.006144
0.006769
0.007140
0.007090
0.006761
0.006136
0.005472
0.004647
0.003616
0.002807
0.002687
0.003429
0.004420
0.005368
0.006232
0.006859
0.007241
0.007230
0.008449
0.009064
0.008790
0.007865
0.006557
0.005176
0.004518
0.005320
0.008631
0.009978
0.010771
0.010416
0.009268
0.007926
0.006234
0.004794
0.004661
0.007105
0.008317
0.008971
0.008627
0.007862
0.006608
0.005224
0.004518
0.005333
0.008630
0.009994
0.010791
0.010442
0.009336
0.007997
0.006303
0.004833
0.004649
0.006273
0.005361
0.004393
0.003555
0.002834
0.002390
0.002284
0.002250
0.002107
0.002161
0.002528
0.003501
0.004545
0.005575
0.006606
0.007283
0.007477
0.007417
0.006268
0.005382
0.004543
0.003686
0.002871
0.002344
0.002290
0.002322
0.002223
0.002085
0.002574
0.003491
0.004564
0.005614
0.006662
0.007349
0.007517
0.007438
0.005817
0.005802
0.005514
0.005172
0.004591
0.004090
0.003669
0.002800
0.002276
0.002117
0.002511
0.002902
0.003236
0.003813
0.004344
0.004735
0.005140
0.005458
0.005858
0.005861
0.005619
0.005228
0.004636
0.004076
0.003556
0.002777
0.002149
0.001971
0.002523
0.002858
0.003340
0.003795
0.004321
0.004722
0.005127
0.005432
0.006090
0.007568
0.003153
0.006155
0.008361
0.004667
0.006284
0.007839
0.003804
0.004212
0.005901
0.006697
0.006561
0.005445
0.007981
0.010007
0.009906
0.004370
0.005376
0.008538
0.006804
0.008800
0.008138
0.006756
0.006037
0.009627
0.003781
0.005489
0.007025
0.003620
0.004944
0.002825
0.002309
0.004022
0.005163
0.008917
0.004990
0.002734
0.002424
0.006259
0.006963
0.008170
0.005172
0.006779
0.004014
0.003075
0.006873
0.007553
0.007179
0.005432
0.007165
0.004739
0.007059
0.007667
0.003885
0.003832
0.007759
0.005809
0.006515
0.005498
0.009318
0.006432
0.006336
0.008562
0.007714
0.006944
0.008591
0.007895
0.005012
0.008788
0.007622
0.008880
0.008438
0.008059
0.007457
0.005383
0.006686
0.008398
0.004006
0.006280
0.008553
0.007964
0.006878
0.003425
0.006256
0.004178
0.006785
0.009177
0.003130
0.006620
0.008871
0.005247
0.005008
0.004979
0.009014
0.008336
0.006642
0.004796
0.008584
0.007865
0.005871
0.007469
0.007265
0.002583
0.005970
0.004038
0.007691
0.006326
0.003035
0.006477
0.007366
0.006727
0.005661
0.007578
0.004034
0.011510
0.005816
0.011155
0.005726
0.004899
0.011607
0.009167
0.003925
0.010731
0.007701
0.008004
0.010200
0.006622
0.006890
0.006186
0.010522
0.011357
0.010317
0.003015
0.004184
0.009320
0.010025
0.010606
0.008886
0.009736
0.006174
0.010520
0.008058
0.009467
0.008711
0.007325
0.009367
0.007545
0.007365
0.005526
0.004782
0.007513
0.009607
0.006297
0.006963
0.007960
0.005175
0.006791
0.004119
0.003150
0.006828
0.007520
0.007176
0.005472
0.007222
0.004745
0.006970
0.007688
0.003966
0.003827
0.007673
0.005849
0.006574
0.005573
0.009186
0.006431
0.006403
0.008587
0.007762
0.006955
0.008441
0.007774
0.005047
0.008684
0.007469
0.008728
0.008252
0.007971
0.007378
0.005335
0.006697
0.008387
0.003869
0.006196
0.008558
0.007920
0.006822
0.003332
0.006285
0.004049
0.006764
0.009008
0.003056
0.006657
0.008811
0.005278
0.004996
0.004994
0.008894
0.008181
0.006562
0.004823
0.008615
0.007817
0.005854
0.007448
0.007287
0.002472
0.005963
0.003998
0.007593
0.006300
0.002947
0.006431
0.007346
0.006752
0.005637
0.007669
0.004060
0.011418
0.005732
0.011044
0.005571
0.004860
0.011534
0.009071
0.003783
0.010668
0.007632
0.007937
0.010142
0.006574
0.006833
0.006118
0.010421
0.011304
0.010214
0.002877
0.004083
0.009210
0.009918
0.010515
0.008828
0.009614
0.006119
0.010403
0.007918
0.009383
0.008637
0.007251
0.009268
0.007473
0.007266
0.005511
0.004699
0.007445
0.009561
0.006066
0.007671
0.003206
0.006107
0.008480
0.004657
0.006323
0.007793
0.003864
0.004220
0.005824
0.006836
0.006490
0.005408
0.007953
0.009998
0.009752
0.004409
0.005333
0.008442
0.006710
0.008796
0.008119
0.006676
0.006023
0.009607
0.003804
0.005583
0.007010
0.003671
0.005020
0.002898
0.002352
0.004110
0.005179
0.008843
0.005074
0.002777
0.002462
0.009539
0.007465
0.004661
0.005460
0.010675
0.004675
0.010044
0.003367
0.004530
0.009547
0.002214
0.004743
0.008067
0.006486
0.004215
0.008567
0.003229
0.004986
0.010840
0.008246
0.007667
0.011240
0.004378
0.008940
0.004143
0.008801
0.005527
0.010730
0.004635
0.008860
0.005908
0.006111
0.007568
0.008775
0.007246
0.010611
0.006526
0.003873
0.007142
0.004543
0.005718
0.003640
0.006213
0.005183
0.009532
0.005000
0.010055
0.009550
0.010274
0.006759
0.011143
0.007911
0.009952
0.008283
0.004837
0.009272
0.006407
0.003969
0.009094
0.002852
0.002797
0.002522
0.006848
0.005114
0.003359
0.004510
0.008349
0.004910
0.007997
0.002953
0.005080
0.007786
0.002361
0.006195
0.004061
0.003496
0.005229
0.006586
0.004343
0.003289
0.008157
0.005761
0.005781
0.008739
0.005870
0.007016
0.002796
0.006003
0.004593
0.008715
0.006151
0.006894
0.004374
0.003968
0.005528
0.006216
0.004784
0.007886
0.004454
0.005125
0.005653
0.003201
0.005159
0.004260
0.005088
0.004204
0.007277
0.004571
0.007800
0.007152
0.008288
0.004926
0.008789
0.005188
0.007140
0.006732
0.006142
0.004268
0.006811
0.003948
0.007268
0.003495
0.002454
0.002846
0.006116
0.006069
0.004404
0.003505
0.007387
0.003042
0.007494
0.004172
0.002453
0.006292
0.004929
0.007927
0.003712
0.003729
0.008852
0.003015
0.005901
0.003591
0.006613
0.005006
0.003768
0.005548
0.008502
0.002829
0.003904
0.006426
0.003067
0.006175
0.007503
0.002465
0.005451
0.004774
0.006846
0.007023
0.005614
0.007674
0.004510
0.008337
0.002821
0.004172
0.006689
0.003302
0.007365
0.003930
0.008325
0.003725
0.008186
0.005415
0.004281
0.003937
0.006749
0.007176
0.005521
0.006541
0.002103
0.004767
0.007823
0.005161
0.004594
0.004703
0.004652
0.004411
0.003212
0.005467
0.007805
0.002282
0.004068
0.002161
0.004214
0.002459
0.004867
0.003262
0.007581
0.004724
0.008721
0.002244
0.006528
0.004907
0.009795
0.003459
0.002705
0.003228
0.004159
0.002091
0.004767
0.009533
0.004201
0.002730
0.004549
0.002185
0.004419
0.006770
0.006567
0.009078
0.004836
0.007104
0.005491
0.004108
0.004282
0.002211
0.002535
0.008185
0.006041
0.008461
0.003588
0.009323
0.002453
0.005904
0.001924
0.004720
0.003207
0.004044
0.002569
0.003826
0.003027
0.004290
0.004994
0.002203
0.005722
0.003145
0.008361
0.003864
0.007651
0.007506
0.007258
0.005635
0.003675
0.007961
0.004443
0.007480
0.004177
0.007452
0.004577
0.003841
0.005578
0.004687
0.003644
0.003529
0.005652
0.002824
0.003744
0.006366
0.008156
0.008721
0.006044
0.004154
0.006190
0.003237
0.006547
0.008443
0.004574
0.004914
0.006309
0.004672
0.002838
0.002414
0.005476
0.004623
0.005587
0.006319
0.005167
0.007699
0.003114
0.004621
0.004370
0.003615
0.004200
0.002878
0.006578
0.004166
0.007184
0.004150
0.007507
0.008209
0.008480
0.005268
0.006092
0.007123
0.005530
0.006481
0.006685
0.005019
0.002874
0.007382
0.002359
0.001948
0.003227
0.005431
0.007152
0.002288
0.004096
0.002161
0.004246
0.008083
0.002422
0.004895
0.007918
0.003205
0.007616
0.004639
0.002233
0.006579
0.004707
0.009888
0.003486
0.002714
0.003207
0.004190
0.002085
0.004829
0.006268
0.004175
0.002678
0.004584
0.002141
0.004437
0.006789
0.004732
0.006827
0.005407
0.004033
0.004294
0.002189
0.002543
0.008350
0.005801
0.008430
0.003546
0.009300
0.002404
0.005906
0.001923
0.004756
0.003231
0.004083
0.002552
0.003851
0.002992
0.004277
0.004994
0.002093
0.003060
0.005659
0.008691
0.003889
0.006325
0.009655
0.009179
0.009634
0.007561
0.004274
0.005524
0.010764
0.004729
0.010111
0.004555
0.009582
0.004737
0.008150
0.004242
0.006563
0.004259
0.008661
0.003285
0.004882
0.010918
0.008340
0.007733
0.011299
0.004405
0.009023
0.003037
0.008894
0.005593
0.010784
0.004646
0.008901
0.005977
0.003623
0.002402
0.005870
0.007633
0.008877
0.007253
0.010700
0.006602
0.003917
0.007216
0.004341
0.005610
0.003653
0.006286
0.005226
0.009625
0.005062
0.010156
0.009651
0.010329
0.006833
0.011220
0.007985
0.010038
0.008319
0.004845
0.006387
0.009350
0.002827
0.009169
0.002283
0.002036
0.004104
0.006800
0.007823
0.004607
0.003103
0.004912
0.002953
0.007977
0.006214
0.002318
0.007225
0.007255
0.005645
0.006616
0.005785
0.004477
0.008635
0.006377
0.003554
0.004173
0.005377
0.003243
0.004582
0.003443
0.007151
0.005404
0.005812
0.002663
0.005103
0.002644
0.007767
0.007338
0.006735
0.006094
0.006218
0.004078
0.004582
0.007275
0.004959
0.008129
0.007285
0.008213
0.005697
0.005656
0.004863
0.004688
0.003875
0.004159
0.004173
0.004652
0.003124
0.005062
0.004805
0.002217
0.006183
0.005480
0.005967
0.008573
0.005174
0.008759
0.006675
0.008179
0.002507
0.005616
0.007770
0.004648
0.005827
0.002317
0.002995
0.007948
0.003295
0.002120
0.005994
0.007832
0.006070
0.006156
0.007341
0.007670
0.005668
0.006921
0.004565
0.003894
0.010508
0.008749
0.008461
0.007810
0.007780
0.008340
0.007714
0.007983
0.008066
0.006866
0.002956
0.004399
0.006239
0.010034
0.011734
0.006942
0.008286
0.010118
0.008214
0.007765
0.006431
0.004986
0.004788
0.009390
0.006964
0.005035
0.007620
0.007710
0.003111
0.008084
0.007927
0.005844
0.007282
0.002314
0.003248
0.005816
0.004508
0.009734
0.008393
0.007306
0.008335
0.003500
0.003341
0.002608
0.005917
0.009179
0.002759
0.004248
0.007531
0.008460
0.008186
0.007613
0.002853
0.004844
0.006848
0.003707
0.003068
0.006835
0.007129
0.004243
0.005521
0.006894
0.007868
0.007287
0.008636
0.009018
0.011203
0.009722
0.010288
0.006255
0.008820
0.010754
0.007492
0.004871
0.005981
0.004119
0.002751
0.003152
0.009039
0.004391
0.007553
0.002980
