# vtk DataFile Version 2.0
Unstructured Grid Example
ASCII
DATASET UNSTRUCTURED_GRID
POINTS 1108 float
1.001205 0.000461 -0.011371 
-1.001205 -0.000447 0.011264 
0.000590 1.006597 -0.001737 
-0.000510 -1.006746 0.001805 
-0.011190 -0.001749 0.992119 
0.011142 0.001813 -0.992182 
1.201150 0.000321 -0.007536 
-1.201132 -0.000204 0.007542 
0.000418 1.206390 -0.001178 
-0.000385 -1.206297 0.001278 
-0.007474 -0.001180 1.192583 
0.007513 0.001224 -1.192542 
0.982143 0.196450 -0.011436 
0.925489 0.385135 -0.011134 
0.833407 0.559183 -0.010319 
0.709238 0.711750 -0.009274 
0.557625 0.837094 -0.007531 
0.384328 0.930230 -0.005824 
0.196204 0.987487 -0.003890 
-0.195053 0.986881 0.000295 
-0.383253 0.929346 0.002533 
-0.556382 0.836076 0.004819 
-0.708172 0.710643 0.006808 
-0.832777 0.558047 0.008295 
-0.924927 0.384068 0.009806 
-0.981901 0.195569 0.010698 
-0.982150 -0.196358 0.011342 
-0.925341 -0.385047 0.011041 
-0.833118 -0.559053 0.010243 
-0.708967 -0.711673 0.009193 
-0.557483 -0.837099 0.007630 
-0.384259 -0.930243 0.005980 
-0.196196 -0.987446 0.003864 
0.195213 -0.987065 -0.000301 
0.383282 -0.929575 -0.002503 
0.556432 -0.836161 -0.004939 
0.708151 -0.710661 -0.006779 
0.832760 -0.558076 -0.008305 
0.924884 -0.384045 -0.009830 
0.981907 -0.195533 -0.010727 
-0.011032 -0.197267 0.973887 
-0.010538 -0.385481 0.918441 
-0.009511 -0.559344 0.827832 
-0.008231 -0.711948 0.705251 
-0.006694 -0.837499 0.554950 
-0.004666 -0.930604 0.383211 
-0.002599 -0.987848 0.196367 
0.001686 -0.986529 -0.192860 
0.003804 -0.928144 -0.379539 
0.005841 -0.834100 -0.551161 
0.007534 -0.708181 -0.701358 
0.008930 -0.555437 -0.824429 
0.010120 -0.381768 -0.915878 
0.010786 -0.193654 -0.972542 
0.011018 0.197238 -0.973913 
0.010420 0.385469 -0.918647 
0.009594 0.559370 -0.827860 
0.008281 0.711925 -0.705157 
0.006674 0.837444 -0.554890 
0.004744 0.930590 -0.383142 
0.002698 0.987840 -0.196331 
-0.001592 0.986534 0.192893 
-0.003847 0.928207 0.379388 
-0.005844 0.834068 0.551198 
-0.007595 0.708228 0.701411 
-0.009011 0.555468 0.824362 
-0.010155 0.381829 0.916006 
-0.010859 0.193719 0.972625 
0.977551 0.000110 0.182739 
0.916512 -0.000277 0.368623 
0.820791 -0.000538 0.540040 
0.694761 -0.000818 0.690515 
0.542703 -0.001234 0.814967 
0.370126 -0.001437 0.909041 
0.183327 -0.001585 0.969072 
-0.206139 -0.001743 0.977378 
-0.394097 -0.001909 0.924998 
-0.567286 -0.001670 0.836445 
-0.718950 -0.001559 0.714432 
-0.842596 -0.001462 0.564677 
-0.932650 -0.001019 0.392659 
-0.986243 -0.000763 0.205660 
-0.977536 -0.000087 -0.182827 
-0.916604 0.000269 -0.368726 
-0.820993 0.000505 -0.540087 
-0.694899 0.000813 -0.690574 
-0.542799 0.001139 -0.814794 
-0.370120 0.001405 -0.909017 
-0.183355 0.001616 -0.969086 
0.206044 0.001846 -0.977377 
0.394049 0.001908 -0.924961 
0.567167 0.001737 -0.836384 
0.718864 0.001592 -0.714440 
0.842607 0.001445 -0.564657 
0.932661 0.001097 -0.392721 
0.986135 0.000816 -0.205684 
1.186519 0.188607 -0.007560 
1.142852 0.372348 -0.007525 
1.071230 0.546996 -0.007163 
0.973012 0.708413 -0.006842 
0.850809 0.852633 -0.006242 
0.707646 0.975692 -0.005180 
0.546813 1.074894 -0.004401 
0.372376 1.147549 -0.003357 
0.188674 1.191682 -0.002464 
-0.187867 1.191272 0.000103 
-0.371586 1.146650 0.001449 
-0.545907 1.073995 0.002292 
-0.706817 0.974627 0.003263 
-0.849852 0.851606 0.004302 
-0.971990 0.707712 0.005520 
-1.070530 0.546244 0.006111 
-1.142273 0.371758 0.006681 
-1.186225 0.188088 0.007173 
-1.186473 -0.188612 0.007595 
-1.142708 -0.372292 0.007508 
-1.071000 -0.546921 0.007178 
-0.972787 -0.708274 0.006789 
-0.850800 -0.852533 0.006052 
-0.707636 -0.975597 0.005156 
-0.546752 -1.074904 0.004350 
-0.372340 -1.147516 0.003375 
-0.188666 -1.191714 0.002474 
0.187960 -1.191316 -0.000078 
0.371667 -1.146837 -0.001409 
0.546032 -1.074081 -0.002328 
0.706893 -0.974697 -0.003334 
0.849905 -0.851560 -0.004353 
0.972009 -0.707682 -0.005627 
1.070529 -0.546216 -0.006145 
1.142262 -0.371725 -0.006688 
1.186234 -0.188027 -0.007206 
0.000977 -1.190817 -0.186340 
0.001987 -1.145645 -0.369251 
0.003135 -1.072060 -0.542526 
0.003970 -0.972153 -0.701967 
0.005069 -0.848559 -0.844076 
0.006052 -0.704307 -0.965022 
0.006481 -0.543369 -1.062186 
0.006932 -0.369313 -1.133482 
0.007321 -0.186382 -1.177353 
0.007393 0.188868 -1.178534 
0.007197 0.372003 -1.135951 
0.006833 0.546577 -1.065338 
0.006302 0.708016 -0.968556 
0.005548 0.852228 -0.847431 
0.004480 0.975514 -0.705601 
0.003657 1.075044 -0.545616 
0.002836 1.147958 -0.371796 
0.001511 1.191971 -0.188931 
-0.001030 1.190719 0.186285 
-0.001970 1.145728 0.369165 
-0.002903 1.071898 0.542794 
-0.003950 0.972112 0.701966 
-0.005069 0.848606 0.844054 
-0.006160 0.704317 0.965167 
-0.006534 0.543393 1.062223 
-0.006989 0.369323 1.133584 
-0.007352 0.186345 1.177384 
-0.007470 -0.188804 1.178549 
-0.007198 -0.372066 1.135819 
-0.006825 -0.546502 1.065316 
-0.006327 -0.707968 0.968676 
-0.005515 -0.852210 0.847520 
-0.004454 -0.975550 0.705672 
-0.003641 -1.075092 0.545661 
-0.002815 -1.147970 0.371859 
-0.001480 -1.191999 0.189054 
-1.190189 -0.000492 0.194915 
-1.149277 -0.000542 0.378540 
-1.079350 -0.000826 0.553090 
-0.981671 -0.000817 0.713911 
-0.858994 -0.001161 0.856223 
-0.715289 -0.001164 0.976937 
-0.553530 -0.001186 1.073199 
-0.378518 -0.001150 1.141703 
-0.194880 -0.001227 1.181770 
0.179391 -0.001058 1.174107 
0.361230 -0.001047 1.127318 
0.533597 -0.000917 1.053398 
0.692995 -0.000735 0.954727 
0.836236 -0.000611 0.833506 
0.959213 -0.000504 0.691708 
1.059322 -0.000214 0.532984 
1.134571 -0.000009 0.360973 
1.182448 0.000136 0.179535 
1.190156 0.000530 -0.195032 
1.149340 0.000693 -0.378502 
1.079409 0.000839 -0.553092 
0.981595 0.000882 -0.713873 
0.859017 0.001132 -0.856169 
0.715311 0.001093 -0.976902 
0.553503 0.001169 -1.073135 
0.378414 0.001192 -1.141727 
0.194882 0.001197 -1.181706 
-0.179458 0.001038 -1.174176 
-0.361341 0.001023 -1.127317 
-0.533591 0.000963 -1.053297 
-0.693043 0.000913 -0.954932 
-0.836302 0.000604 -0.833594 
-0.959343 0.000480 -0.691811 
-1.059495 0.000183 -0.533082 
-1.134647 -0.000007 -0.361012 
-1.182446 -0.000119 -0.179559 
0.827116 -0.398976 -0.422761 
0.423193 -0.797608 -0.444677 
0.404347 -0.377983 -0.838769 
0.900402 -0.299854 -0.345802 
0.300545 -0.899492 -0.335266 
0.692581 -0.337291 -0.655639 
0.565859 -0.633641 -0.543510 
0.873200 -0.483273 -0.117076 
0.189139 -0.620868 -0.760535 
0.624406 -0.171255 -0.776499 
0.883355 -0.156556 -0.469693 
0.212357 -0.856160 -0.479259 
0.960597 -0.138629 -0.276055 
0.813720 -0.294213 -0.525663 
0.690035 -0.647616 -0.349552 
0.467547 -0.867689 -0.204810 
0.632884 -0.761772 -0.180342 
0.536490 -0.479130 -0.706424 
0.808511 -0.142283 -0.594649 
0.563415 -0.757737 -0.352367 
0.989449 -0.122953 -0.124084 
0.775886 -0.620504 -0.159233 
0.155739 -0.953891 -0.276531 
0.942740 -0.307979 -0.168703 
0.745160 -0.472647 -0.493558 
0.270807 -0.956836 -0.153010 
0.560766 -0.301277 -0.783162 
0.341612 -0.707705 -0.625702 
0.840892 -0.471334 -0.297822 
0.509559 -0.181015 -0.850865 
0.154778 -0.760353 -0.632467 
0.204651 -0.481013 -0.851397 
0.187283 -0.317439 -0.927199 
0.360374 -0.557936 -0.753072 
0.648008 -0.483802 -0.605585 
0.125648 -0.990402 -0.124461 
0.456791 -0.604078 -0.663050 
0.340187 -0.215107 -0.918529 
0.215844 -0.131529 -0.966281 
0.512027 0.589552 -0.644701 
0.511702 0.792214 -0.366093 
0.818473 0.377405 -0.464786 
0.411268 0.474023 -0.791090 
0.356199 0.893931 -0.307497 
0.302149 0.316862 -0.904493 
0.181266 0.166080 -0.968392 
0.773042 0.219964 -0.619532 
0.682439 0.544024 -0.516145 
0.507428 0.854165 -0.177656 
0.613812 0.179525 -0.785042 
0.190114 0.885479 -0.444155 
0.179221 0.479263 -0.862664 
0.564950 0.691453 -0.478615 
0.155980 0.962139 -0.259109 
0.401699 0.142197 -0.911968 
0.134408 0.325937 -0.935034 
0.633430 0.710122 -0.344244 
0.124644 0.630447 -0.771032 
0.176356 0.761689 -0.634646 
0.311343 0.631041 -0.722644 
0.862126 0.490636 -0.181437 
0.620645 0.399031 -0.695243 
0.384649 0.774299 -0.524504 
0.769207 0.559992 -0.346066 
0.127880 0.993057 -0.113960 
0.292744 0.954107 -0.144701 
0.712330 0.696340 -0.157541 
0.954195 0.149155 -0.296285 
0.484983 0.309776 -0.830673 
0.863168 0.414842 -0.326549 
0.886811 0.173523 -0.459615 
0.944954 0.295692 -0.187874 
0.904462 0.287440 -0.351378 
0.987132 0.130099 -0.142813 
0.736253 0.389654 -0.579323 
0.450607 0.458213 0.744417 
0.448816 0.807385 0.373947 
0.825408 0.412087 0.358800 
0.321275 0.312079 0.875233 
0.301783 0.909418 0.289733 
0.901763 0.338646 0.242686 
0.959499 0.169083 0.197364 
0.544243 0.632395 0.531593 
0.098966 0.479981 0.860486 
0.741471 0.165645 0.620628 
0.430131 0.158577 0.866608 
0.428325 0.889092 0.175765 
0.863190 0.474687 0.156238 
0.249928 0.139983 0.941353 
0.253813 0.962310 0.137261 
0.937298 0.323703 0.111549 
0.600769 0.158251 0.756611 
0.503785 0.289978 0.789598 
0.309697 0.628323 0.698176 
0.775207 0.624121 0.103770 
0.668049 0.726852 0.159993 
0.579332 0.493667 0.624908 
0.186298 0.754107 0.620304 
0.755798 0.579274 0.286258 
0.624751 0.686622 0.355432 
0.383089 0.720080 0.564099 
0.550608 0.806992 0.213582 
0.110165 0.992157 0.120599 
0.101048 0.121900 0.975498 
0.457096 0.594055 0.642365 
0.142376 0.612676 0.766368 
0.695367 0.506599 0.484892 
0.631729 0.348891 0.665627 
0.146923 0.308037 0.926497 
0.163594 0.953752 0.263994 
0.774595 0.319181 0.516662 
0.830009 0.140012 0.508466 
0.211859 0.867532 0.446410 
0.879221 0.233377 0.385027 
0.246446 0.475421 0.828754 
0.507682 -0.791685 0.335547 
0.318341 -0.374067 0.856119 
0.323337 -0.878794 0.355564 
0.139272 -0.467943 0.864898 
0.500741 -0.159406 0.828144 
0.424863 -0.889671 0.183705 
0.598143 -0.548037 0.565559 
0.254908 -0.176150 0.935623 
0.225853 -0.963225 0.177885 
0.910700 -0.375283 0.152110 
0.760631 -0.401727 0.484513 
0.736582 -0.662600 0.133025 
0.859756 -0.189272 0.444195 
0.950917 -0.182118 0.222137 
0.495176 -0.323202 0.785699 
0.560203 -0.678889 0.461611 
0.609387 -0.778464 0.156185 
0.703501 -0.639874 0.294834 
[...]
POINT_DATA 1108
SCALARS u float 1
LOOKUP_TABLE default
0.011444
0.011337
0.006848
0.007002
0.013798
0.013731
0.007630
0.007629
0.006511
0.006437
0.010596
0.010657
0.011597
0.011514
0.011103
0.010588
0.009622
0.008772
0.007829
0.006103
0.006051
0.006716
0.007745
0.008755
0.009959
0.010767
0.011493
0.011385
0.010944
0.010432
0.009673
0.008873
0.007779
0.006288
0.006250
0.006867
0.007725
0.008771
0.009975
0.010795
0.013192
0.012184
0.010859
0.009728
0.009030
0.008201
0.007634
0.006388
0.006523
0.007776
0.009537
0.011373
0.012933
0.013651
0.013162
0.011988
0.010932
0.009777
0.008984
0.008231
0.007654
0.006357
0.006662
0.007747
0.009559
0.011477
0.012878
0.013652
0.012768
0.015876
0.018855
0.020697
0.020962
0.019492
0.016675
0.011693
0.011627
0.012837
0.014012
0.014452
0.013322
0.011920
0.012687
0.015742
0.018702
0.020568
0.021035
0.019512
0.016649
0.011619
0.011575
0.012714
0.013948
0.014446
0.013382
0.011895
0.007721
0.007840
0.007763
0.007813
0.007811
0.007475
0.007470
0.007290
0.006975
0.006049
0.005626
0.005424
0.005226
0.005453
0.006120
0.006420
0.006821
0.007251
0.007748
0.007785
0.007700
0.007652
0.007604
0.007393
0.007431
0.007263
0.007007
0.006096
0.005807
0.005542
0.005343
0.005480
0.006209
0.006446
0.006821
0.007283
0.005841
0.005056
0.004804
0.005379
0.006746
0.008445
0.009660
0.010533
0.010834
0.010038
0.009025
0.008054
0.007211
0.006758
0.006494
0.006937
0.007331
0.007017
0.005770
0.005149
0.004432
0.005354
0.006762
0.008424
0.009666
0.010494
0.010837
0.010077
0.009113
0.008041
0.007178
0.006707
0.006505
0.006975
0.007343
0.007060
0.008753
0.011137
0.013133
0.013850
0.013042
0.011735
0.009683
0.007795
0.008043
0.013934
0.016961
0.019392
0.020298
0.019419
0.017913
0.015399
0.011909
0.008646
0.008834
0.011164
0.013180
0.013771
0.013026
0.011729
0.009630
0.007700
0.008068
0.013837
0.016898
0.019480
0.020113
0.019310
0.017750
0.015212
0.011834
0.008624
0.011666
0.007380
0.010212
0.011700
0.006473
0.012188
0.009380
0.009407
0.009039
0.012560
0.013259
0.006881
0.012011
0.012737
0.009472
0.006914
0.007924
0.010238
0.013822
0.008174
0.011120
0.008824
0.006254
0.010596
0.011418
0.006133
0.011527
0.007966
0.010510
0.011556
0.007945
0.010052
0.011025
0.008979
0.011026
0.006285
0.008979
0.010785
0.011367
0.013317
0.012041
0.014493
0.012431
0.010614
0.011625
0.011744
0.014796
0.014065
0.010662
0.013748
0.009957
0.011022
0.013288
0.008975
0.011997
0.011591
0.012676
0.010463
0.010340
0.011629
0.012250
0.014296
0.011924
0.013521
0.008040
0.009126
0.011556
0.012953
0.013029
0.013460
0.014420
0.012260
0.013662
0.011807
0.014668
0.017926
0.010095
0.014769
0.018214
0.007833
0.013397
0.013251
0.014179
0.013610
0.019770
0.020114
0.008448
0.011919
0.017928
0.007495
0.012065
0.021099
0.019989
0.014044
0.010814
0.010324
0.017085
0.010812
0.012386
0.012012
0.012371
0.009443
0.006716
0.015520
0.015398
0.012542
0.015612
0.019196
0.015716
0.006897
0.017787
0.018390
0.008419
0.015976
0.015752
0.008315
0.015987
0.007303
0.012864
0.019816
0.006595
0.014181
0.017019
0.006541
0.010942
0.015498
0.008591
0.016560
0.012961
0.018063
0.010848
0.007618
0.010309
0.015055
0.014419
0.008996
0.007629
0.009323
0.009768
0.012145
0.019154
0.007990
0.014842
0.012947
0.011954
0.017463
0.011088
0.010877
0.013248
0.020040
0.018460
0.013630
0.006727
0.013409
0.012121
0.014325
0.012595
0.010740
0.011610
0.011690
0.014717
0.014147
0.010776
0.013928
0.009961
0.011091
0.013085
0.008890
0.012047
0.011588
0.012665
0.010406
0.010328
0.011644
0.012018
0.014365
0.011949
0.013434
0.008036
0.009181
0.011457
0.012845
0.013027
0.013486
0.014357
0.012097
0.013568
0.011768
0.014761
0.017594
0.009981
0.014506
0.018234
0.007904
0.013299
0.013180
0.014219
0.013552
0.019751
0.020091
0.008492
0.011811
0.017858
0.007456
0.011961
0.020876
0.019945
0.013845
0.010649
0.010362
0.017009
0.010536
0.012324
0.011993
0.012323
0.009488
0.006789
0.015532
0.015060
0.012518
0.015514
0.019025
0.015766
0.007020
0.017622
0.018198
0.008472
0.015955
0.015745
0.008249
0.015950
0.007278
0.012884
0.019931
0.006514
0.014135
0.017017
0.006452
0.010924
0.015397
0.008571
0.016474
0.012883
0.017980
0.010879
0.007487
0.010246
0.014959
0.014332
0.008943
0.007647
0.009337
0.009779
0.012119
0.019096
0.008002
0.014807
0.012847
0.011807
0.017382
0.010982
0.010854
0.013169
0.019997
0.018500
0.013505
0.006642
0.011671
0.007378
0.010287
0.011753
0.006504
0.012191
0.009370
0.009424
0.009053
0.012621
0.013283
0.006668
0.011937
0.012732
0.009440
0.006813
0.007710
0.010257
0.013837
0.008117
0.011072
0.008787
0.006256
0.010617
0.011413
0.006039
0.011588
0.008071
0.010492
0.011638
0.007993
0.010109
0.011070
0.009063
0.011016
0.006208
0.009064
0.010830
0.011396
0.008486
0.012910
0.013616
0.009688
0.005020
0.009571
0.005355
0.014450
0.007700
0.006006
0.013044
0.017586
0.007117
0.009501
0.016178
0.005767
0.019247
0.009008
0.005774
0.008694
0.006668
0.004803
0.012569
0.006236
0.011354
0.010984
0.007572
0.005329
0.009467
0.006383
0.014385
0.015521
0.010470
0.010180
0.013346
0.005688
0.011974
0.018584
0.006183
0.017688
0.011533
0.019594
0.007170
0.015203
0.005858
0.012623
0.005213
0.006416
0.004956
0.008387
0.004859
0.011737
0.008134
0.006464
0.007801
0.007676
0.014863
0.016753
0.005459
0.017688
0.010863
0.015849
0.012545
0.012678
0.009320
0.009672
0.011599
0.008945
0.010722
0.007974
0.007906
0.008650
0.007976
0.014096
0.009406
0.008675
0.008498
0.014107
0.011355
0.007494
0.012062
0.011287
0.009292
0.009605
0.008454
0.012332
0.007731
0.013140
0.008780
0.009367
0.007910
0.009868
0.011266
0.010741
0.013136
0.013792
0.012261
0.013277
0.011122
0.007624
0.013880
0.009102
0.012601
0.007604
0.013185
0.010198
0.014239
0.010007
0.013149
0.010766
0.009379
0.010262
0.011300
0.012272
0.013696
0.008219
0.007107
0.011398
0.014309
0.010311
0.009057
0.008972
0.007989
0.007622
0.017054
0.011015
0.005843
0.017034
0.012071
0.015642
0.010258
0.005408
0.015233
0.009779
0.005926
0.007835
0.010726
0.007934
0.007786
0.011759
0.006432
0.005867
0.016261
0.019098
0.020047
0.016890
0.008203
0.012971
0.005243
0.014254
0.018022
0.013107
0.008202
0.013192
0.007827
0.010411
0.009241
0.011882
0.013074
0.012878
0.016982
0.007077
0.009193
0.006857
0.006962
0.007445
0.006776
0.013865
0.009577
0.015191
0.010136
0.018690
0.020010
0.018732
0.014774
0.013945
0.016136
0.008035
0.012759
0.013892
0.011008
0.005955
0.019051
0.006278
0.004917
0.006330
0.010747
0.008122
0.006097
0.007369
0.010551
0.007239
0.009460
0.007714
0.009302
0.005956
0.008004
0.005750
0.007219
0.006867
0.007633
0.004819
0.006302
0.012100
0.009757
0.010271
0.012972
0.007928
0.007693
0.006065
0.009387
0.007877
0.011489
0.008712
0.007863
0.006871
0.005245
0.005779
0.006903
0.008123
0.009420
0.008002
0.010799
0.007753
0.006374
0.006471
0.005710
0.006783
0.005282
0.006405
0.006451
0.009099
0.006753
0.009489
0.011792
0.013015
0.008675
0.011875
0.008780
0.010664
0.007844
0.009017
0.009438
0.007200
0.005780
0.012077
0.005703
0.005864
0.009678
0.015129
0.016687
0.010582
0.005383
0.010223
0.005539
0.008130
0.006387
0.009427
0.018642
0.019510
0.012036
0.006277
0.016542
0.011483
0.019994
0.007126
0.009378
0.007783
0.006382
0.005072
0.012932
0.018560
0.012747
0.008298
0.006054
0.005647
0.009735
0.016482
0.013898
0.016094
0.017815
0.013192
0.012486
0.015316
0.007243
0.012902
0.007152
0.018907
0.018669
0.014158
0.020052
0.009148
0.016080
0.007729
0.013403
0.005523
0.007094
0.007022
0.009475
0.005953
0.010139
0.012931
0.006326
0.008015
0.016116
0.010037
0.016267
0.006731
0.014091
0.012612
0.010725
0.008080
0.006060
0.007300
0.010534
0.007209
0.009464
0.005927
0.007693
0.009345
0.005989
0.005866
0.008013
0.005556
0.006869
0.007689
0.004782
0.006352
0.012096
0.009687
0.010189
0.012956
0.007914
0.007693
0.005272
0.009378
0.007807
0.011521
0.008708
0.007870
0.007091
0.006705
0.008287
0.009457
0.007900
0.010795
0.007658
0.006398
0.006624
0.005595
0.007547
0.005230
0.006510
0.006367
0.009104
0.006693
0.009523
0.011746
0.012969
0.008580
0.011861
0.008722
0.010670
0.007874
0.009013
0.007067
0.009487
0.006639
0.012031
0.005270
0.005982
0.005893
0.008469
0.012909
0.014712
0.009747
0.005049
0.009620
0.005420
0.007729
0.006094
0.017684
0.007123
0.018308
0.009479
0.016274
0.005763
0.019084
0.008997
0.005825
0.008758
0.006695
0.004862
0.012680
0.006246
0.017455
0.010970
0.007586
0.005397
0.009511
0.006439
0.014201
0.011585
0.015626
0.016037
0.010576
0.010182
0.013478
0.005673
0.012085
0.018672
0.006164
0.016967
0.011540
0.019617
0.007129
0.015308
0.005846
0.012744
0.005197
0.006483
0.005032
0.008416
0.004898
0.011822
0.008096
0.006523
0.007843
0.015067
0.007696
0.014897
0.005501
0.012946
0.012085
0.011333
0.013368
0.012844
0.009701
0.008330
0.008938
0.007787
0.011093
0.007870
0.008247
0.009137
0.011163
0.013846
0.014148
0.009442
0.011572
0.009034
0.013959
0.009601
0.010398
0.008377
0.007602
0.008784
0.008586
0.012798
0.013075
0.008491
0.007633
0.007951
0.007704
0.013484
0.012916
0.014273
0.013693
0.012812
0.010677
0.011178
0.008971
0.012977
0.011399
0.013956
0.009062
0.014136
0.011039
0.012173
0.010317
0.009751
0.009233
0.007710
0.009670
0.008243
0.012258
0.012458
0.008726
0.007142
0.013118
0.012006
0.011342
0.007583
0.009241
0.011325
0.008584
0.009987
0.010235
0.015954
0.011251
0.012286
0.014048
0.013741
0.005094
0.002644
0.010197
0.009528
0.011565
0.010248
0.016823
0.009763
0.010513
0.011295
0.017115
0.013027
0.002359
0.006597
0.008172
0.007855
0.009886
0.015875
0.013491
0.015113
0.013128
0.014053
0.011471
0.017013
0.016383
0.014785
0.014111
0.009164
0.017359
0.017033
0.006598
0.013458
0.005995
0.013037
0.019542
0.010790
0.013870
0.011384
0.018673
0.007906
0.007979
0.016866
0.008595
0.010095
0.015616
0.018813
0.013034
0.012664
0.011538
0.012516
0.009141
0.012752
0.014936
0.012759
0.012874
0.011127
0.011982
0.012315
0.012875
0.016234
0.019225
0.009918
0.013514
0.015989
0.016267
0.016298
0.018155
0.011009
0.013225
0.014969
0.018039
0.016190
0.015440
0.014201
0.016490
0.015566
0.019120
0.017063
0.013803
0.007215
0.007942
0.006264
0.010264
0.007349
0.007144
0.012439
0.014025
0.011852
0.012238
0.013084
0.013459
0.006434
0.004933
0.012765
0.003845
