# vtk DataFile Version 2.0
Unstructured Grid Example
ASCII
DATASET UNSTRUCTURED_GRID
POINTS 1108 float
1.000486 0.000186 -0.004584 
-1.000486 -0.000180 0.004541 
0.000238 1.002660 -0.000700 
-0.000206 -1.002720 0.000728 
-0.004511 -0.000705 0.996823 
0.004492 0.000731 -0.996848 
1.200464 0.000129 -0.003038 
-1.200456 -0.000082 0.003040 
0.000169 1.202576 -0.000475 
-0.000155 -1.202539 0.000515 
-0.003013 -0.000476 1.197010 
0.003029 0.000494 -1.196993 
0.981333 0.195638 -0.004611 
0.924528 0.383672 -0.004489 
0.832251 0.557027 -0.004160 
0.707966 0.708979 -0.003739 
0.556399 0.833737 -0.003036 
0.383346 0.926440 -0.002348 
0.195539 0.983487 -0.001568 
-0.195075 0.983243 0.000119 
-0.382913 0.926083 0.001021 
-0.555897 0.833327 0.001943 
-0.707536 0.708533 0.002745 
-0.831997 0.556569 0.003344 
-0.924302 0.383242 0.003953 
-0.981235 0.195283 0.004313 
-0.981335 -0.195601 0.004572 
-0.924469 -0.383636 0.004451 
-0.832134 -0.556974 0.004130 
-0.707857 -0.708948 0.003706 
-0.556341 -0.833739 0.003076 
-0.383319 -0.926445 0.002411 
-0.195536 -0.983470 0.001558 
0.195140 -0.983317 -0.000121 
0.382925 -0.926176 -0.001009 
0.555918 -0.833361 -0.001991 
0.707528 -0.708540 -0.002733 
0.831990 -0.556581 -0.003348 
0.924284 -0.383232 -0.003963 
0.981238 -0.195269 -0.004325 
-0.004448 -0.195968 0.978004 
-0.004249 -0.383811 0.921687 
-0.003834 -0.557092 0.830003 
-0.003319 -0.709058 0.706359 
-0.002699 -0.833900 0.555320 
-0.001881 -0.926590 0.382896 
-0.001048 -0.983633 0.195605 
0.000680 -0.983101 -0.194191 
0.001533 -0.925599 -0.381416 
0.002355 -0.832530 -0.553793 
0.003037 -0.707540 -0.704789 
0.003600 -0.555516 -0.828631 
0.004080 -0.382314 -0.920654 
0.004348 -0.194511 -0.977462 
0.004442 0.195956 -0.978015 
0.004201 0.383806 -0.921770 
0.003868 0.557102 -0.830014 
0.003338 0.709049 -0.706321 
0.002691 0.833878 -0.555296 
0.001912 0.926585 -0.382868 
0.001088 0.983629 -0.195590 
-0.000642 0.983103 0.194205 
-0.001551 0.925624 0.381355 
-0.002356 0.832517 0.553808 
-0.003062 0.707559 0.704811 
-0.003633 0.555529 0.828604 
-0.004094 0.382339 0.920705 
-0.004378 0.194537 0.977496 
0.979482 0.000044 0.190111 
0.920909 -0.000112 0.377015 
0.827164 -0.000217 0.549309 
0.702130 -0.000330 0.700418 
0.550383 -0.000497 0.824816 
0.377621 -0.000579 0.917897 
0.190348 -0.000639 0.976063 
-0.199545 -0.000703 0.979412 
-0.387285 -0.000770 0.924331 
-0.560293 -0.000673 0.833476 
-0.711881 -0.000628 0.710060 
-0.835955 -0.000589 0.559241 
-0.927416 -0.000411 0.386705 
-0.982986 -0.000308 0.199352 
-0.979475 -0.000035 -0.190146 
-0.920946 0.000109 -0.377056 
-0.827246 0.000203 -0.549328 
-0.702185 0.000328 -0.700441 
-0.550421 0.000459 -0.824747 
-0.377618 0.000566 -0.917888 
-0.190359 0.000652 -0.976069 
0.199506 0.000744 -0.979411 
0.387266 0.000769 -0.924315 
0.560246 0.000700 -0.833451 
0.711847 0.000642 -0.710063 
0.835960 0.000583 -0.559233 
0.927420 0.000442 -0.386730 
0.982942 0.000329 -0.199361 
1.185747 0.188078 -0.003048 
1.141906 0.371436 -0.003034 
1.070023 0.545679 -0.002888 
0.971704 0.706580 -0.002758 
0.849448 0.850183 -0.002517 
0.706271 0.972784 -0.002089 
0.545605 1.071500 -0.001774 
0.371448 1.143800 -0.001353 
0.188105 1.187829 -0.000993 
-0.187780 1.187663 0.000041 
-0.371129 1.143438 0.000584 
-0.545240 1.071138 0.000924 
-0.705937 0.972355 0.001315 
-0.849062 0.849769 0.001734 
-0.971292 0.706298 0.002225 
-1.069741 0.545375 0.002464 
-1.141673 0.371198 0.002694 
-1.185629 0.187869 0.002892 
-1.185729 -0.188080 0.003062 
-1.141848 -0.371413 0.003027 
-1.069931 -0.545648 0.002894 
-0.971613 -0.706524 0.002737 
-0.849444 -0.850143 0.002440 
-0.706267 -0.972746 0.002079 
-0.545580 -1.071504 0.001754 
-0.371433 -1.143787 0.001361 
-0.188102 -1.187842 0.000997 
0.187818 -1.187681 -0.000032 
0.371162 -1.143513 -0.000568 
0.545290 -1.071173 -0.000938 
0.705967 -0.972383 -0.001344 
0.849083 -0.849750 -0.001755 
0.971299 -0.706285 -0.002269 
1.069741 -0.545364 -0.002478 
1.141669 -0.371185 -0.002696 
1.185633 -0.187844 -0.002905 
0.000394 -1.187480 -0.187165 
0.000801 -1.143032 -0.370188 
0.001264 -1.070358 -0.543876 
0.001600 -0.971358 -0.703981 
0.002043 -0.848541 -0.846733 
0.002440 -0.704925 -0.968483 
0.002613 -0.544216 -1.066377 
0.002795 -0.370213 -1.138129 
0.002951 -0.187182 -1.182052 
0.002981 0.188184 -1.182528 
0.002901 0.371297 -1.139124 
0.002755 0.545510 -1.067648 
0.002541 0.706420 -0.969908 
0.002237 0.850020 -0.848086 
0.001806 0.972712 -0.705446 
0.001474 1.071561 -0.545122 
0.001143 1.143965 -0.371214 
0.000609 1.187945 -0.188209 
-0.000415 1.187440 0.187142 
-0.000794 1.143066 0.370153 
-0.001170 1.070293 0.543984 
-0.001592 0.971341 0.703981 
-0.002044 0.848560 0.846724 
-0.002484 0.704929 0.968541 
-0.002634 0.544226 1.066392 
-0.002818 0.370217 1.138170 
-0.002964 0.187166 1.182064 
-0.003011 -0.188158 1.182534 
-0.002902 -0.371322 1.139071 
-0.002751 -0.545479 1.067639 
-0.002551 -0.706401 0.969956 
-0.002223 -0.850013 0.848122 
-0.001796 -0.972727 0.705475 
-0.001468 -1.071580 0.545140 
-0.001135 -1.143970 0.371239 
-0.000597 -1.187956 0.188259 
-1.187227 -0.000198 0.190621 
-1.144497 -0.000219 0.373932 
-1.073297 -0.000333 0.548136 
-0.975195 -0.000329 0.708797 
-0.852747 -0.000468 0.851630 
-0.709353 -0.000469 0.973286 
-0.548313 -0.000478 1.070817 
-0.373924 -0.000463 1.141443 
-0.190607 -0.000495 1.183833 
0.184363 -0.000427 1.180743 
0.366954 -0.000422 1.135644 
0.540277 -0.000370 1.062834 
0.700364 -0.000296 0.964332 
0.843573 -0.000246 0.842472 
0.966141 -0.000203 0.699846 
1.065222 -0.000086 0.540030 
1.138568 -0.000004 0.366850 
1.184106 0.000055 0.184421 
1.187213 0.000213 -0.190669 
1.144522 0.000280 -0.373917 
1.073321 0.000338 -0.548136 
0.975164 0.000356 -0.708781 
0.852757 0.000456 -0.851609 
0.709361 0.000441 -0.973272 
0.548302 0.000471 -1.070791 
0.373882 0.000481 -1.141453 
0.190608 0.000483 -1.183807 
-0.184390 0.000419 -1.180771 
-0.366999 0.000413 -1.135643 
-0.540274 0.000388 -1.062793 
-0.700384 0.000368 -0.964415 
-0.843599 0.000244 -0.842507 
-0.966193 0.000193 -0.699887 
-1.065292 0.000074 -0.540069 
-1.138599 -0.000003 -0.366866 
-1.184105 -0.000048 -0.184431 
0.822173 -0.397646 -0.418040 
0.419683 -0.795145 -0.443669 
0.398280 -0.377673 -0.838274 
0.895980 -0.299040 -0.340458 
0.298150 -0.896479 -0.334943 
0.686365 -0.336489 -0.651947 
0.561094 -0.631673 -0.541328 
0.871332 -0.481814 -0.111986 
0.184172 -0.620103 -0.762495 
0.617597 -0.171393 -0.773366 
0.877620 -0.156446 -0.464243 
0.209075 -0.853813 -0.480023 
0.956640 -0.138522 -0.270078 
0.807882 -0.293386 -0.520864 
0.686233 -0.645349 -0.346035 
0.465631 -0.864512 -0.203002 
0.630688 -0.759101 -0.177115 
0.530790 -0.478021 -0.704524 
0.801875 -0.142307 -0.589749 
0.559994 -0.755101 -0.350097 
0.987335 -0.122897 -0.117793 
0.773636 -0.618426 -0.154949 
0.154003 -0.950650 -0.277174 
0.940162 -0.307198 -0.162981 
0.739893 -0.470984 -0.489566 
0.269679 -0.953377 -0.152606 
0.554318 -0.300926 -0.780787 
0.337152 -0.706062 -0.625650 
0.837008 -0.469780 -0.293147 
0.502927 -0.181268 -0.848988 
0.150608 -0.758907 -0.634201 
0.199035 -0.480784 -0.853495 
0.181207 -0.317785 -0.929704 
0.355102 -0.556981 -0.752990 
0.642366 -0.482323 -0.602537 
0.125021 -0.986738 -0.124966 
0.451775 -0.602614 -0.661861 
0.333775 -0.215517 -0.918920 
0.209418 -0.132292 -0.968318 
0.506054 0.585750 -0.641091 
0.507592 0.787758 -0.362233 
0.812543 0.374650 -0.459124 
0.404944 0.470922 -0.788761 
0.353038 0.889319 -0.304518 
0.295568 0.314685 -0.904175 
0.174703 0.164622 -0.970376 
0.766228 0.217880 -0.614315 
0.676663 0.540392 -0.511255 
0.504838 0.849992 -0.173611 
0.606757 0.177623 -0.781310 
0.186404 0.881057 -0.442740 
0.173175 0.476728 -0.863210 
0.559838 0.687113 -0.474381 
0.153629 0.957593 -0.257527 
0.394817 0.140554 -0.910867 
0.128048 0.324063 -0.937009 
0.629144 0.706094 -0.339486 
0.119180 0.627449 -0.771426 
0.171536 0.757917 -0.633857 
0.305635 0.627441 -0.721021 
0.858982 0.488030 -0.175372 
0.613908 0.395956 -0.691007 
0.379908 0.769854 -0.521604 
0.764388 0.556569 -0.340572 
0.126606 0.988731 -0.112319 
0.290835 0.949770 -0.142015 
0.709638 0.692907 -0.152199 
0.949874 0.147894 -0.289999 
0.478153 0.307277 -0.827920 
0.858384 0.412184 -0.320668 
0.880778 0.171844 -0.453711 
0.941756 0.293987 -0.181518 
0.899463 0.285373 -0.345277 
0.984601 0.129178 -0.136301 
0.729813 0.386692 -0.574185 
0.456925 0.459252 0.752989 
0.451242 0.806054 0.379299 
0.829183 0.412023 0.366765 
0.328179 0.313220 0.883552 
0.303136 0.907061 0.293538 
0.904210 0.338198 0.250286 
0.961602 0.168810 0.204983 
0.548645 0.632481 0.538820 
0.104752 0.480557 0.866159 
0.748228 0.166273 0.630280 
0.437619 0.159616 0.875934 
0.428826 0.886369 0.179979 
0.864271 0.473593 0.163184 
0.257028 0.141013 0.949293 
0.253995 0.958941 0.140199 
0.938042 0.322877 0.118664 
0.608282 0.159164 0.766676 
0.510968 0.291106 0.799056 
0.314839 0.628730 0.704783 
0.775326 0.622295 0.109959 
0.668614 0.724924 0.165818 
0.584990 0.494380 0.633361 
0.190488 0.753688 0.625194 
0.758140 0.578500 0.293227 
0.627500 0.685829 0.362006 
0.387172 0.719874 0.570248 
0.551546 0.804943 0.218748 
0.110343 0.988579 0.122398 
0.107823 0.122892 0.981737 
0.462314 0.594585 0.649912 
0.147527 0.612913 0.771795 
0.700061 0.506863 0.492937 
0.638271 0.349771 0.674993 
0.153447 0.308945 0.933175 
0.164812 0.950877 0.266678 
0.780333 0.319684 0.525580 
0.836053 0.140443 0.517618 
0.214588 0.865939 0.450317 
0.883642 0.233480 0.393475 
0.252559 0.476319 0.835840 
0.510109 -0.789591 0.339335 
0.325013 -0.373259 0.862893 
0.325701 -0.875896 0.357802 
0.145384 -0.466510 0.869319 
0.508250 -0.158878 0.837266 
0.425878 -0.886737 0.186124 
0.603313 -0.547394 0.572229 
0.261945 -0.175289 0.942899 
0.226953 -0.959566 0.178688 
0.912055 -0.374614 0.158463 
0.765754 -0.401366 0.492206 
0.737380 -0.661033 0.137841 
0.864989 -0.189050 0.452577 
0.953350 -0.181889 0.229477 
0.502139 -0.322744 0.793916 
0.563931 -0.677627 0.466751 
0.610287 -0.776285 0.160073 
0.706069 -0.638564 0.300270 
[...]
POINT_DATA 1108
SCALARS u float 1
LOOKUP_TABLE default
0.004614
0.004571
0.002761
0.002823
0.005563
0.005536
0.003076
0.003076
0.002625
0.002595
0.004272
0.004296
0.004675
0.004642
0.004476
0.004269
0.003879
0.003537
0.003156
0.002460
0.002440
0.002708
0.003122
0.003529
0.004015
0.004341
0.004634
0.004590
0.004412
0.004206
0.003900
0.003577
0.003136
0.002535
0.002520
0.002768
0.003114
0.003536
0.004021
0.004352
0.005318
0.004912
0.004378
0.003922
0.003641
0.003306
0.003078
0.002575
0.002630
0.003135
0.003845
0.004585
0.005214
0.005503
0.005306
0.004833
0.004407
0.003941
0.003622
0.003318
0.003086
0.002563
0.002686
0.003123
0.003854
0.004627
0.005192
0.005504
0.005147
0.006400
0.007601
0.008344
0.008451
0.007858
0.006723
0.004714
0.004687
0.005175
0.005649
0.005826
0.005371
0.004806
0.005115
0.006347
0.007540
0.008292
0.008480
0.007866
0.006712
0.004684
0.004667
0.005126
0.005623
0.005824
0.005395
0.004796
0.003113
0.003161
0.003130
0.003150
0.003149
0.003014
0.003011
0.002939
0.002812
0.002439
0.002268
0.002187
0.002107
0.002198
0.002467
0.002588
0.002750
0.002923
0.003124
0.003139
0.003104
0.003085
0.003066
0.002981
0.002996
0.002928
0.002825
0.002457
0.002341
0.002234
0.002154
0.002209
0.002503
0.002599
0.002750
0.002936
0.002355
0.002039
0.001937
0.002168
0.002720
0.003405
0.003894
0.004246
0.004368
0.004047
0.003639
0.003247
0.002907
0.002725
0.002618
0.002797
0.002956
0.002829
0.002326
0.002076
0.001787
0.002159
0.002726
0.003396
0.003897
0.004231
0.004369
0.004063
0.003674
0.003242
0.002894
0.002704
0.002623
0.002812
0.002960
0.002846
0.003529
0.004490
0.005295
0.005584
0.005258
0.004731
0.003904
0.003143
0.003243
0.005618
0.006838
0.007818
0.008183
0.007829
0.007222
0.006208
0.004801
0.003486
0.003561
0.004501
0.005314
0.005552
0.005252
0.004729
0.003882
0.003104
0.003253
0.005579
0.006812
0.007853
0.008109
0.007785
0.007156
0.006133
0.004771
0.003477
0.004703
0.002975
0.004117
0.004717
0.002609
0.004913
0.003781
0.003792
0.003644
0.005064
0.005345
0.002774
0.004842
0.005135
0.003819
0.002787
0.003195
0.004127
0.005572
0.003296
0.004483
0.003557
0.002521
0.004272
0.004603
0.002473
0.004647
0.003211
0.004237
0.004659
0.003203
0.004052
0.004445
0.003620
0.004445
0.002534
0.003620
0.004348
0.004582
0.005369
0.004854
0.005843
0.005011
0.004279
0.004687
0.004735
0.005965
0.005670
0.004298
0.005542
0.004014
0.004443
0.005357
0.003618
0.004837
0.004673
0.005110
0.004218
0.004168
0.004688
0.004939
0.005763
0.004807
0.005451
0.003241
0.003679
0.004659
0.005222
0.005253
0.005427
0.005814
0.004943
0.005508
0.004760
0.005913
0.007227
0.004070
0.005954
0.007343
0.003158
0.005401
0.005342
0.005716
0.005487
0.007970
0.008109
0.003406
0.004805
0.007228
0.003022
0.004864
0.008506
0.008059
0.005662
0.004360
0.004162
0.006888
0.004359
0.004993
0.004843
0.004987
0.003807
0.002708
0.006257
0.006208
0.005056
0.006294
0.007739
0.006336
0.002781
0.007171
0.007414
0.003394
0.006441
0.006351
0.003352
0.006445
0.002944
0.005186
0.007989
0.002659
0.005717
0.006861
0.002637
0.004411
0.006248
0.003463
0.006676
0.005225
0.007282
0.004373
0.003071
0.004156
0.006069
0.005813
0.003627
0.003076
0.003758
0.003938
0.004896
0.007722
0.003221
0.005984
0.005220
0.004819
0.007040
0.004470
0.004385
0.005341
0.008079
0.007442
0.005495
0.002712
0.005406
0.004886
0.005775
0.005078
0.004330
0.004681
0.004713
0.005933
0.005703
0.004344
0.005615
0.004016
0.004471
0.005275
0.003584
0.004857
0.004672
0.005106
0.004195
0.004164
0.004695
0.004845
0.005791
0.004817
0.005416
0.003240
0.003701
0.004619
0.005178
0.005252
0.005437
0.005788
0.004877
0.005470
0.004744
0.005951
0.007093
0.004024
0.005848
0.007351
0.003187
0.005361
0.005314
0.005732
0.005464
0.007963
0.008100
0.003424
0.004761
0.007199
0.003006
0.004822
0.008416
0.008041
0.005581
0.004293
0.004177
0.006857
0.004247
0.004968
0.004835
0.004968
0.003825
0.002737
0.006262
0.006071
0.005047
0.006254
0.007670
0.006356
0.002830
0.007105
0.007337
0.003416
0.006432
0.006348
0.003326
0.006430
0.002934
0.005194
0.008035
0.002626
0.005699
0.006860
0.002601
0.004404
0.006207
0.003455
0.006642
0.005194
0.007249
0.004386
0.003018
0.004131
0.006031
0.005778
0.003605
0.003083
0.003764
0.003942
0.004886
0.007698
0.003226
0.005970
0.005179
0.004760
0.007007
0.004427
0.004376
0.005309
0.008062
0.007458
0.005444
0.002678
0.004705
0.002974
0.004147
0.004738
0.002622
0.004915
0.003778
0.003799
0.003650
0.005088
0.005355
0.002688
0.004813
0.005133
0.003806
0.002747
0.003108
0.004135
0.005579
0.003272
0.004464
0.003543
0.002522
0.004280
0.004601
0.002435
0.004672
0.003254
0.004230
0.004692
0.003222
0.004076
0.004463
0.003654
0.004441
0.002503
0.003654
0.004366
0.004594
0.003421
0.005205
0.005489
0.003906
0.002024
0.003859
0.002159
0.005826
0.003104
0.002421
0.005259
0.007090
0.002869
0.003830
0.006522
0.002325
0.007759
0.003632
0.002328
0.003505
0.002688
0.001936
0.005067
0.002514
0.004577
0.004428
0.003053
0.002148
0.003817
0.002573
0.005799
0.006257
0.004221
0.004104
0.005380
0.002293
0.004827
0.007492
0.002493
0.007131
0.004650
0.007899
0.002891
0.006129
0.002362
0.005089
0.002102
0.002587
0.001998
0.003381
0.001959
0.004732
0.003279
0.002606
0.003145
0.003094
0.005992
0.006754
0.002201
0.007131
0.004380
0.006390
0.005058
0.005111
0.003757
0.003899
0.004676
0.003606
0.004323
0.003215
0.003187
0.003487
0.003216
0.005683
0.003792
0.003498
0.003426
0.005687
0.004578
0.003021
0.004863
0.004551
0.003746
0.003872
0.003408
0.004972
0.003117
0.005297
0.003540
0.003776
0.003189
0.003978
0.004542
0.004330
0.005296
0.005560
0.004943
0.005353
0.004484
0.003073
0.005596
0.003670
0.005080
0.003066
0.005315
0.004111
0.005740
0.004034
0.005301
0.004341
0.003781
0.004137
0.004556
0.004948
0.005522
0.003314
0.002865
0.004595
0.005769
0.004157
0.003651
0.003617
0.003221
0.003073
0.006875
0.004441
0.002356
0.006867
0.004866
0.006306
0.004136
0.002180
0.006141
0.003942
0.002389
0.003159
0.004324
0.003199
0.003139
0.004741
0.002593
0.002365
0.006556
0.007699
0.008082
0.006809
0.003307
0.005229
0.002114
0.005746
0.007266
0.005284
0.003307
0.005318
0.003156
0.004197
0.003725
0.004790
0.005271
0.005192
0.006846
0.002853
0.003706
0.002765
0.002807
0.003001
0.002732
0.005590
0.003861
0.006124
0.004086
0.007535
0.008067
0.007552
0.005956
0.005622
0.006505
0.003239
0.005144
0.005601
0.004438
0.002401
0.007681
0.002531
0.001982
0.002552
0.004333
0.003274
0.002458
0.002971
0.004254
0.002918
0.003814
0.003110
0.003750
0.002401
0.003227
0.002318
0.002910
0.002769
0.003077
0.001943
0.002541
0.004878
0.003933
0.004141
0.005230
0.003196
0.003102
0.002445
0.003784
0.003176
0.004632
0.003512
0.003170
0.002770
0.002115
0.002330
0.002783
0.003275
0.003798
0.003226
0.004354
0.003126
0.002570
0.002609
0.002302
0.002734
0.002130
0.002582
0.002601
0.003668
0.002723
0.003825
0.004754
0.005247
0.003497
0.004788
0.003540
0.004299
0.003162
0.003635
0.003805
0.002903
0.002330
0.004869
0.002299
0.002364
0.003902
0.006099
0.006727
0.004266
0.002170
0.004121
0.002233
0.003277
0.002575
0.003801
0.007515
0.007865
0.004852
0.002531
0.006669
0.004629
0.008061
0.002873
0.003781
0.003138
0.002573
0.002045
0.005214
0.007483
0.005139
0.003345
0.002441
0.002277
0.003925
0.006645
0.005603
0.006488
0.007182
0.005318
0.005034
0.006175
0.002920
0.005202
0.002883
0.007622
0.007526
0.005708
0.008084
0.003688
0.006483
0.003116
0.005403
0.002227
0.002860
0.002831
0.003820
0.002400
0.004087
0.005213
0.002550
0.003231
0.006497
0.004046
0.006558
0.002714
0.005681
0.005085
0.004324
0.003257
0.002443
0.002943
0.004247
0.002906
0.003815
0.002389
0.003102
0.003767
0.002414
0.002365
0.003231
0.002240
0.002769
0.003100
0.001928
0.002561
0.004876
0.003905
0.004108
0.005223
0.003191
0.003101
0.002125
0.003781
0.003147
0.004645
0.003511
0.003173
0.002859
0.002703
0.003341
0.003813
0.003185
0.004352
0.003087
0.002579
0.002670
0.002256
0.003043
0.002108
0.002624
0.002567
0.003671
0.002698
0.003839
0.004735
0.005229
0.003459
0.004782
0.003516
0.004302
0.003174
0.003634
0.002849
0.003825
0.002676
0.004850
0.002125
0.002412
0.002376
0.003414
0.005204
0.005931
0.003930
0.002035
0.003878
0.002185
0.003116
0.002457
0.007130
0.002872
0.007381
0.003821
0.006561
0.002324
0.007694
0.003627
0.002348
0.003531
0.002699
0.001960
0.005112
0.002518
0.007037
0.004423
0.003058
0.002176
0.003835
0.002596
0.005725
0.004670
0.006300
0.006465
0.004264
0.004105
0.005434
0.002287
0.004872
0.007528
0.002485
0.006840
0.004653
0.007909
0.002874
0.006172
0.002357
0.005138
0.002095
0.002614
0.002029
0.003393
0.001975
0.004766
0.003264
0.002630
0.003162
0.006074
0.003103
0.006006
0.002218
0.005219
0.004872
0.004569
0.005389
0.005178
0.003911
0.003358
0.003603
0.003139
0.004472
0.003173
0.003325
0.003683
0.004501
0.005582
0.005704
0.003807
0.004665
0.003642
0.005628
0.003871
0.004192
0.003377
0.003065
0.003541
0.003461
0.005160
0.005271
0.003423
0.003077
0.003205
0.003106
0.005436
0.005207
0.005754
0.005520
0.005165
0.004304
0.004507
0.003617
0.005232
0.004596
0.005626
0.003654
0.005699
0.004450
0.004908
0.004159
0.003931
0.003722
0.003108
0.003898
0.003323
0.004942
0.005023
0.003518
0.002879
0.005289
0.004840
0.004572
0.003057
0.003726
0.004566
0.003461
0.004026
0.004126
0.006432
0.004536
0.004953
0.005663
0.005540
0.002054
0.001066
0.004111
0.003841
0.004662
0.004131
0.006782
0.003936
0.004238
0.004554
0.006900
0.005252
0.000951
0.002660
0.003295
0.003167
0.003986
0.006400
0.005439
0.006093
0.005293
0.005665
0.004625
0.006859
0.006605
0.005960
0.005689
0.003694
0.006998
0.006867
0.002660
0.005426
0.002417
0.005256
0.007878
0.004350
0.005592
0.004589
0.007528
0.003187
0.003217
0.006799
0.003465
0.004070
0.006296
0.007584
0.005255
0.005105
0.004652
0.005046
0.003685
0.005141
0.006022
0.005144
0.005190
0.004486
0.004831
0.004965
0.005191
0.006545
0.007751
0.003999
0.005448
0.006446
0.006558
0.006571
0.007319
0.004438
0.005332
0.006035
0.007273
0.006527
0.006225
0.005725
0.006648
0.006275
0.007708
0.006879
0.005565
0.002909
0.003202
0.002525
0.004138
0.002963
0.002880
0.005015
0.005654
0.004778
0.004934
0.005275
0.005426
0.002594
0.001989
0.005146
0.001550
