# vtk DataFile Version 2.0
Unstructured Grid Example
ASCII
DATASET UNSTRUCTURED_GRID
POINTS 1108 float
0.981548 -0.023915 0.003925 
-0.981837 0.023578 -0.003690 
-0.023816 1.024732 -0.006517 
0.023805 -1.024897 0.006581 
0.003900 -0.006344 0.992730 
-0.003983 0.006596 -0.993605 
1.182678 -0.015800 0.002603 
-1.182695 0.015961 -0.002445 
-0.015776 1.223377 -0.004066 
0.016107 -1.223591 0.004292 
0.002520 -0.004228 1.193181 
-0.002482 0.004095 -1.193640 
0.954348 0.172915 0.002423 
0.891892 0.362111 0.001175 
0.797238 0.537883 -0.000060 
0.673871 0.693927 -0.001728 
0.525145 0.825951 -0.003230 
0.355244 0.928125 -0.004478 
0.170216 0.995301 -0.005517 
-0.218537 1.013172 -0.007058 
-0.406074 0.961845 -0.007472 
-0.576882 0.871322 -0.007450 
-0.724430 0.744849 -0.007160 
-0.842578 0.589526 -0.006723 
-0.925765 0.412398 -0.005963 
-0.972474 0.221159 -0.004942 
-0.954744 -0.173110 -0.002289 
-0.892149 -0.362240 -0.001283 
-0.797901 -0.538101 0.000204 
-0.674476 -0.693865 0.001828 
-0.525308 -0.825613 0.003191 
-0.355141 -0.927668 0.004416 
-0.170002 -0.995377 0.005664 
0.218745 -1.013312 0.007229 
0.406230 -0.961701 0.007582 
0.577044 -0.871385 0.007627 
0.724784 -0.744864 0.007287 
0.842594 -0.589557 0.006799 
0.926029 -0.412667 0.006136 
0.972578 -0.221474 0.005171 
0.008648 -0.204440 0.976285 
0.012811 -0.395469 0.923143 
0.016650 -0.572589 0.834604 
0.019664 -0.728076 0.713207 
0.022010 -0.856146 0.563217 
0.023426 -0.950545 0.390874 
0.024398 -1.006997 0.202389 
0.022563 -1.002125 -0.189054 
0.020496 -0.940515 -0.376568 
0.017465 -0.842831 -0.548910 
0.013812 -0.714001 -0.699434 
0.009921 -0.558377 -0.822694 
0.005335 -0.381905 -0.914777 
0.000531 -0.191060 -0.972409 
-0.008356 0.204122 -0.976851 
-0.012661 0.395362 -0.923896 
-0.016541 0.572398 -0.834546 
-0.019444 0.727837 -0.712976 
-0.021751 0.855939 -0.563086 
-0.023211 0.950343 -0.390739 
-0.024173 1.006986 -0.202308 
-0.022410 1.002159 0.189331 
-0.020377 0.940639 0.376987 
-0.017613 0.843405 0.548914 
-0.013902 0.714275 0.699510 
-0.010249 0.558498 0.822786 
-0.005588 0.382184 0.914416 
-0.000659 0.191461 0.971945 
0.964514 -0.024508 0.197313 
0.910433 -0.024450 0.383133 
0.820830 -0.023074 0.554491 
0.699661 -0.021252 0.705001 
0.551093 -0.018690 0.828313 
0.380915 -0.014791 0.919473 
0.196063 -0.010403 0.975009 
-0.188521 -0.001297 0.971951 
-0.372547 0.002967 0.913695 
-0.542811 0.008188 0.820863 
-0.692057 0.012040 0.696758 
-0.814224 0.016016 0.546130 
-0.905120 0.019218 0.374988 
-0.961693 0.021741 0.189497 
-0.964575 0.024281 -0.197064 
-0.910348 0.024404 -0.382883 
-0.820670 0.022871 -0.554251 
-0.699486 0.021143 -0.704889 
-0.550691 0.018318 -0.828563 
-0.381043 0.014316 -0.919992 
-0.196413 0.010414 -0.975879 
0.188172 0.001851 -0.972316 
0.372918 -0.003016 -0.914087 
0.542865 -0.007993 -0.821104 
0.691770 -0.012132 -0.696691 
0.813814 -0.016089 -0.546027 
0.905003 -0.019581 -0.374832 
0.961692 -0.022206 -0.189124 
1.160185 0.171606 0.001907 
1.111007 0.353525 0.001053 
1.036681 0.526309 0.000224 
0.939383 0.687247 -0.000569 
0.820013 0.833048 -0.000983 
0.680478 0.960330 -0.002002 
0.523855 1.065839 -0.002609 
0.353281 1.146747 -0.003169 
0.171949 1.200014 -0.003823 
-0.204808 1.216167 -0.004440 
-0.389784 1.177479 -0.005004 
-0.566289 1.107799 -0.004975 
-0.727152 1.007488 -0.005275 
-0.867951 0.881141 -0.004743 
-0.986266 0.733839 -0.004409 
-1.078350 0.568467 -0.004214 
-1.141829 0.390239 -0.003759 
-1.176433 0.204512 -0.003287 
-1.160637 -0.171852 -0.001852 
-1.111343 -0.354020 -0.000803 
-1.037043 -0.526450 -0.000118 
-0.939844 -0.687792 0.000602 
-0.819756 -0.833563 0.001054 
-0.680226 -0.960404 0.002148 
-0.523704 -1.065550 0.002648 
-0.353227 -1.146497 0.003290 
-0.171937 -1.200120 0.003689 
0.204850 -1.216128 0.004525 
0.390015 -1.177439 0.004985 
0.566373 -1.107833 0.005102 
0.727264 -1.007544 0.005320 
0.868136 -0.881343 0.004837 
0.986516 -0.734032 0.004479 
1.078529 -0.568695 0.004291 
1.142074 -0.390381 0.003828 
1.176533 -0.204491 0.003364 
0.015297 -1.205925 -0.184898 
0.014266 -1.158008 -0.368400 
0.012936 -1.081597 -0.541966 
0.011602 -0.978970 -0.701573 
0.009282 -0.853065 -0.843040 
0.006808 -0.707045 -0.963889 
0.004705 -0.544176 -1.061062 
0.002365 -0.368897 -1.132494 
0.000241 -0.185159 -1.176918 
-0.005319 0.193856 -1.181533 
-0.007382 0.378169 -1.140666 
-0.009430 0.555381 -1.071979 
-0.011253 0.719137 -0.976736 
-0.012688 0.866157 -0.856126 
-0.014639 0.991958 -0.714413 
-0.015125 1.093588 -0.553749 
-0.015673 1.166801 -0.378221 
-0.016031 1.210619 -0.193666 
-0.015313 1.205868 0.184782 
-0.014293 1.158120 0.368564 
-0.012883 1.082461 0.541631 
-0.011869 0.979583 0.701635 
-0.009454 0.853355 0.843265 
-0.006400 0.707087 0.963781 
-0.004759 0.544191 1.061061 
-0.002478 0.368843 1.132222 
-0.000255 0.184941 1.176486 
0.005105 -0.193055 1.180801 
0.007373 -0.378397 1.140214 
0.009624 -0.555158 1.071941 
0.011339 -0.719179 0.976715 
0.012665 -0.866297 0.856325 
0.014756 -0.992125 0.714531 
0.015233 -1.093817 0.553862 
0.015790 -1.166927 0.378233 
0.016116 -1.210655 0.193727 
-1.166987 0.014872 0.182976 
-1.122902 0.013885 0.364229 
-1.051796 0.012086 0.536499 
-0.954783 0.010667 0.696137 
-0.834669 0.007993 0.838378 
-0.694047 0.005661 0.959627 
-0.534973 0.003472 1.058208 
-0.364216 0.000927 1.131827 
-0.183270 -0.001499 1.177091 
0.188453 -0.006699 1.179662 
0.370066 -0.009182 1.136522 
0.542373 -0.011047 1.065255 
0.701322 -0.012251 0.967337 
0.842449 -0.014210 0.845566 
0.962420 -0.015646 0.702862 
1.057899 -0.015867 0.543252 
1.127726 -0.016307 0.369986 
1.169705 -0.016310 0.188506 
1.166758 -0.014849 -0.182922 
1.122612 -0.013830 -0.364053 
1.051269 -0.012054 -0.536377 
0.954444 -0.010477 -0.695986 
0.834605 -0.008012 -0.838128 
0.694239 -0.005896 -0.959639 
0.535116 -0.003299 -1.058674 
0.363822 -0.000773 -1.132226 
0.183652 0.000949 -1.177402 
-0.188413 0.006474 -1.180346 
-0.370128 0.009647 -1.137406 
-0.542588 0.010976 -1.065495 
-0.701765 0.012820 -0.967235 
-0.842436 0.014088 -0.845413 
-0.962309 0.015456 -0.702735 
-1.057752 0.015679 -0.543128 
-1.127624 0.016149 -0.369902 
-1.169754 0.016209 -0.188449 
0.818567 -0.421060 -0.408487 
0.432867 -0.820126 -0.438115 
0.394388 -0.387044 -0.829137 
0.888166 -0.322543 -0.330249 
0.315925 -0.922529 -0.329631 
0.679274 -0.353247 -0.641491 
0.567224 -0.653847 -0.534119 
0.876695 -0.511883 -0.102337 
0.190530 -0.629580 -0.756589 
0.605195 -0.183442 -0.761328 
0.862194 -0.176276 -0.452592 
0.223996 -0.873258 -0.475245 
0.941267 -0.161419 -0.259367 
0.798857 -0.313407 -0.510161 
0.695486 -0.674072 -0.338193 
0.484866 -0.897776 -0.196265 
0.647148 -0.793540 -0.168935 
0.529840 -0.493410 -0.695731 
0.786298 -0.159234 -0.577317 
0.573418 -0.784441 -0.343474 
0.972881 -0.147118 -0.108035 
0.784273 -0.650708 -0.145999 
0.174171 -0.973827 -0.272208 
0.935155 -0.333684 -0.153018 
0.739198 -0.493805 -0.480593 
0.291267 -0.983332 -0.146288 
0.546499 -0.312942 -0.770165 
0.345698 -0.723565 -0.619848 
0.838834 -0.496695 -0.283764 
0.491886 -0.190108 -0.837471 
0.161594 -0.771648 -0.629237 
0.200486 -0.486824 -0.846543 
0.178111 -0.320491 -0.922249 
0.357764 -0.569888 -0.745640 
0.641795 -0.501363 -0.593986 
0.147578 -1.012362 -0.119233 
0.455881 -0.619716 -0.654681 
0.325819 -0.220066 -0.909387 
0.200992 -0.133283 -0.960575 
0.476632 0.581596 -0.634146 
0.476083 0.784200 -0.359416 
0.778946 0.358711 -0.447346 
0.379951 0.470447 -0.782322 
0.324237 0.894152 -0.305443 
0.275953 0.316542 -0.898198 
0.160494 0.168435 -0.965200 
0.738189 0.203893 -0.600930 
0.643508 0.529131 -0.501737 
0.473559 0.845649 -0.172781 
0.583504 0.168695 -0.768666 
0.160172 0.895043 -0.446634 
0.152259 0.484894 -0.862244 
0.527622 0.680798 -0.468336 
0.127443 0.973543 -0.262321 
0.377092 0.137669 -0.901017 
0.111016 0.331555 -0.934997 
0.595183 0.695939 -0.333979 
0.096666 0.640066 -0.774171 
0.146455 0.770677 -0.636834 
0.280424 0.632621 -0.718976 
0.822878 0.468587 -0.167872 
0.584985 0.387361 -0.679886 
0.351219 0.772696 -0.520113 
0.728754 0.540980 -0.331949 
0.101299 1.005294 -0.117239 
0.263342 0.957538 -0.144719 
0.674426 0.678677 -0.148055 
0.922004 0.127231 -0.278908 
0.454741 0.303028 -0.817819 
0.823460 0.393860 -0.310525 
0.851646 0.153922 -0.440785 
0.909312 0.272760 -0.172417 
0.866996 0.266256 -0.333899 
0.958221 0.106806 -0.126935 
0.697972 0.373857 -0.562105 
0.444589 0.448836 0.749063 
0.426858 0.799872 0.375405 
0.803885 0.392075 0.366685 
0.323522 0.304190 0.879657 
0.279271 0.909399 0.289590 
0.877676 0.316820 0.252660 
0.939741 0.145418 0.210087 
0.527211 0.621124 0.534767 
0.098695 0.479389 0.860085 
0.737240 0.146735 0.631665 
0.435393 0.146436 0.875053 
0.401792 0.883771 0.176963 
0.832866 0.452963 0.165325 
0.258214 0.131874 0.947098 
0.229064 0.966009 0.136580 
0.909074 0.300597 0.123009 
0.602206 0.142217 0.767458 
0.503165 0.277947 0.796884 
0.300703 0.624398 0.699710 
0.742101 0.604726 0.111291 
0.637305 0.711033 0.165184 
0.567228 0.480678 0.629875 
0.175350 0.755381 0.620432 
0.729220 0.560801 0.292478 
0.600465 0.672352 0.359272 
0.368063 0.714417 0.565418 
0.522917 0.795920 0.216273 
0.086850 1.003683 0.117730 
0.111787 0.116538 0.977952 
0.445377 0.585067 0.645467 
0.137074 0.612853 0.766320 
0.677508 0.490159 0.490575 
0.624281 0.333712 0.673216 
0.151587 0.304301 0.928200 
0.142400 0.960694 0.262447 
0.761776 0.300604 0.524965 
0.823372 0.118872 0.520348 
0.194871 0.870165 0.445678 
0.864165 0.212039 0.395853 
0.244448 0.471647 0.830648 
0.534158 -0.828532 0.353128 
0.339336 -0.394270 0.871373 
0.350800 -0.911964 0.370343 
0.162799 -0.484729 0.876025 
0.514814 -0.178685 0.843590 
0.450469 -0.925089 0.197580 
0.621664 -0.580370 0.586464 
0.271427 -0.190110 0.946143 
0.251893 -0.993057 0.188345 
0.916579 -0.405140 0.168899 
0.777264 -0.432383 0.504430 
0.754476 -0.697777 0.149416 
0.865663 -0.215907 0.461311 
0.948666 -0.209173 0.238402 
0.514294 -0.346477 0.803751 
0.585526 -0.714146 0.481424 
0.631919 -0.815637 0.172110 
0.725039 -0.675449 0.313401 
[...]
POINT_DATA 1108
SCALARS u float 1
LOOKUP_TABLE default
0.030460
0.029990
0.034948
0.035070
0.010407
0.010013
0.023589
0.023669
0.028494
0.028886
0.008409
0.007961
0.034591
0.038050
0.038531
0.035795
0.031090
0.028125
0.029324
0.040601
0.045214
0.045803
0.042140
0.036353
0.030365
0.027804
0.034155
0.037768
0.037843
0.035263
0.030988
0.028150
0.029571
0.040863
0.045192
0.045963
0.042323
0.036402
0.030681
0.028110
0.013507
0.018115
0.024014
0.029387
0.033939
0.036427
0.036546
0.031637
0.027096
0.021873
0.017238
0.013539
0.010580
0.009310
0.012917
0.017917
0.023796
0.029021
0.033591
0.036111
0.036372
0.031500
0.026991
0.022293
0.017389
0.013749
0.011002
0.009579
0.029502
0.027907
0.025431
0.022616
0.019477
0.015535
0.011938
0.011086
0.014672
0.018503
0.021876
0.025358
0.027937
0.029470
0.029261
0.027905
0.025327
0.022583
0.019178
0.014925
0.011588
0.011092
0.014155
0.018241
0.022156
0.025723
0.028309
0.029887
0.029839
0.034870
0.037411
0.036278
0.032461
0.027061
0.021362
0.018646
0.021956
0.035623
0.041181
0.044456
0.042989
0.038254
0.032712
0.025729
0.019787
0.019237
0.029324
0.034328
0.037026
0.035608
0.032448
0.027275
0.021563
0.018647
0.022013
0.035621
0.041251
0.044540
0.043098
0.038532
0.033008
0.026016
0.019948
0.019186
0.025893
0.022127
0.018133
0.014671
0.011698
0.009863
0.009427
0.009288
0.008698
0.008920
0.010434
0.014450
0.018759
0.023010
0.027265
0.030058
0.030860
0.030612
0.025870
0.022212
0.018750
0.015212
0.011848
0.009673
0.009454
0.009585
0.009175
0.008607
0.010624
0.014409
0.018836
0.023172
0.027496
0.030331
0.031027
0.030699
0.024008
0.023948
0.022758
0.021348
0.018947
0.016879
0.015145
0.011559
0.009393
0.008739
0.010364
0.011979
0.013355
0.015738
0.017931
0.019545
0.021213
0.022528
0.024178
0.024189
0.023192
0.021576
0.019136
0.016825
0.014677
0.011460
0.008870
0.008137
0.010415
0.011794
0.013784
0.015662
0.017836
0.019488
0.021161
0.022420
0.025134
0.031235
0.013012
0.025406
0.034508
0.019263
0.025937
0.032355
0.015701
0.017385
0.024354
0.027640
0.027082
0.022472
0.032940
0.041301
0.040884
0.018036
0.022187
0.035241
0.028081
0.036321
0.033587
0.027885
0.024917
0.039733
0.015604
0.022657
0.028993
0.014941
0.020404
0.011659
0.009529
0.016601
0.021312
0.036804
0.020594
0.011286
0.010003
0.025832
0.028739
0.033720
0.021346
0.027980
0.016566
0.012690
0.028368
0.031175
0.029629
0.022420
0.029573
0.019562
0.029136
0.031642
0.016033
0.015815
0.032025
0.023976
0.026888
0.022691
0.038457
0.026546
0.026152
0.035339
0.031837
0.028662
0.035458
0.032586
0.020685
0.036272
0.031457
0.036649
0.034827
0.033262
0.030778
0.022218
0.027595
0.034663
0.016536
0.025921
0.035303
0.032872
0.028387
0.014137
0.025821
0.017243
0.028005
0.037879
0.012917
0.027321
0.036614
0.021656
0.020670
0.020548
0.037205
0.034405
0.027416
0.019794
0.035429
0.032461
0.024230
0.030827
0.029986
0.010663
0.024642
0.016665
0.031742
0.026112
0.012526
0.026732
0.030404
0.027764
0.023365
0.031278
0.016652
0.047507
0.024007
0.046042
0.023632
0.020220
0.047905
0.037837
0.016199
0.044292
0.031787
0.033036
0.042100
0.027331
0.028438
0.025533
0.043427
0.046873
0.042581
0.012443
0.017268
0.038469
0.041377
0.043773
0.036677
0.040185
0.025484
0.043420
0.033259
0.039076
0.035955
0.030233
0.038660
0.031141
0.030397
0.022808
0.019738
0.031008
0.039652
0.025988
0.028741
0.032854
0.021359
0.028031
0.017002
0.012999
0.028181
0.031036
0.029619
0.022586
0.029807
0.019584
0.028767
0.031733
0.016369
0.015796
0.031670
0.024141
0.027133
0.023002
0.037913
0.026542
0.026426
0.035440
0.032038
0.028706
0.034840
0.032087
0.020829
0.035843
0.030829
0.036023
0.034061
0.032899
0.030452
0.022021
0.027642
0.034618
0.015971
0.025573
0.035323
0.032690
0.028156
0.013753
0.025943
0.016710
0.027917
0.037178
0.012615
0.027474
0.036365
0.021783
0.020621
0.020610
0.036710
0.033765
0.027083
0.019908
0.035556
0.032265
0.024160
0.030739
0.030075
0.010204
0.024612
0.016499
0.031340
0.026001
0.012164
0.026545
0.030322
0.027866
0.023267
0.031652
0.016757
0.047125
0.023658
0.045581
0.022991
0.020060
0.047606
0.037438
0.015614
0.044030
0.031501
0.032760
0.041859
0.027132
0.028203
0.025251
0.043013
0.046654
0.042155
0.011875
0.016854
0.038015
0.040935
0.043399
0.036437
0.039679
0.025255
0.042938
0.032682
0.038728
0.035649
0.029927
0.038251
0.030842
0.029991
0.022745
0.019394
0.030727
0.039464
0.025035
0.031660
0.013233
0.025206
0.034998
0.019220
0.026096
0.032165
0.015950
0.017419
0.024037
0.028214
0.026788
0.022320
0.032825
0.041264
0.040249
0.018199
0.022011
0.034845
0.027694
0.036306
0.033510
0.027553
0.024860
0.039651
0.015702
0.023045
0.028932
0.015151
0.020718
0.011962
0.009709
0.016962
0.021376
0.036497
0.020944
0.011460
0.010162
0.039370
0.030811
0.019238
0.022536
0.044060
0.019295
0.041456
0.013898
0.018696
0.039404
0.009137
0.019576
0.033296
0.026770
0.017397
0.035359
0.013328
0.020580
0.044740
0.034033
0.031646
0.046390
0.018068
0.036899
0.017099
0.036325
0.022810
0.044285
0.019132
0.036569
0.024386
0.025221
0.031235
0.036220
0.029906
0.043797
0.026934
0.015987
0.029479
0.018752
0.023601
0.015024
0.025643
0.021394
0.039342
0.020638
0.041499
0.039417
0.042406
0.027898
0.045990
0.032652
0.041077
0.034188
0.019962
0.038269
0.026443
0.016380
0.037536
0.011773
0.011545
0.010409
0.028263
0.021108
0.013865
0.018614
0.034460
0.020266
0.033007
0.012189
0.020967
0.032136
0.009744
0.025569
0.016760
0.014430
0.021580
0.027183
0.017926
0.013577
0.033669
0.023776
0.023859
0.036070
0.024226
0.028957
0.011541
0.024775
0.018958
0.035970
0.025385
0.028454
0.018053
0.016377
0.022817
0.025657
0.019746
0.032550
0.018385
0.021151
0.023330
0.013211
0.021293
0.017584
0.021001
0.017351
0.030036
0.018865
0.032195
0.029521
0.034206
0.020333
0.036274
0.021411
0.029468
0.027786
0.025348
0.017615
0.028112
0.016294
0.029999
0.014426
0.010129
0.011745
0.025242
0.025048
0.018175
0.014467
0.030489
0.012556
0.030932
0.017218
0.010126
0.025967
0.020345
0.032716
0.015319
0.015390
0.036534
0.012443
0.024356
0.014823
0.027293
0.020660
0.015552
0.022899
0.035092
0.011674
0.016112
0.026521
0.012657
0.025486
0.030969
0.010176
0.022499
0.019706
0.028258
0.028985
0.023173
0.031673
0.018616
0.034410
0.011644
0.017219
0.027608
0.013627
0.030397
0.016221
0.034360
0.015373
0.033788
0.022351
0.017670
0.016249
0.027855
0.029617
0.022789
0.026997
0.008681
0.019674
0.032287
0.021300
0.018960
0.019410
0.019201
0.018205
0.013256
0.022565
0.032214
0.009420
0.016792
0.008919
0.017394
0.010149
0.020087
0.013463
0.031290
0.019498
0.035994
0.009262
0.026945
0.020253
0.040428
0.014276
0.011166
0.013323
0.017166
0.008631
0.019674
0.039347
0.017337
0.011266
0.018777
0.009017
0.018238
0.027943
0.027105
0.037469
0.019958
0.029321
0.022664
0.016957
0.017673
0.009125
0.010464
0.033781
0.024935
0.034922
0.014809
0.038479
0.010125
0.024369
0.007941
0.019482
0.013238
0.016690
0.010601
0.015792
0.012492
0.017704
0.020610
0.009091
0.023617
0.012979
0.034510
0.015946
0.031578
0.030980
0.029956
0.023257
0.015166
0.032860
0.018337
0.030871
0.017240
0.030756
0.018889
0.015853
0.023020
0.019346
0.015041
0.014565
0.023330
0.011655
0.015453
0.026276
0.033664
0.035997
0.024946
0.017145
0.025548
0.013361
0.027022
0.034846
0.018880
0.020282
0.026040
0.019281
0.011712
0.009965
0.022602
0.019080
0.023059
0.026083
0.021326
0.031778
0.012851
0.019072
0.018038
0.014921
0.017335
0.011878
0.027150
0.017194
0.029650
0.017128
0.030986
0.033881
0.035001
0.021743
0.025145
0.029401
0.022825
0.026750
0.027592
0.020717
0.011861
0.030469
0.009735
0.008042
0.013319
0.022414
0.029521
0.009444
0.016906
0.008920
0.017525
0.033360
0.009996
0.020202
0.032679
0.013228
0.031435
0.019146
0.009215
0.027154
0.019425
0.040813
0.014387
0.011202
0.013238
0.017294
0.008604
0.019932
0.025869
0.017232
0.011054
0.018921
0.008838
0.018313
0.028019
0.019531
0.028178
0.022315
0.016645
0.017723
0.009033
0.010496
0.034462
0.023941
0.034794
0.014637
0.038386
0.009922
0.024376
0.007935
0.019629
0.013335
0.016850
0.010534
0.015894
0.012351
0.017653
0.020614
0.008638
0.012630
0.023357
0.035870
0.016053
0.026104
0.039850
0.037887
0.039764
0.031207
0.017640
0.022797
0.044426
0.019516
0.041733
0.018802
0.039547
0.019549
0.033637
0.017506
0.027088
0.017577
0.035748
0.013560
0.020149
0.045064
0.034420
0.031918
0.046634
0.018180
0.037240
0.012535
0.036707
0.023084
0.044511
0.019174
0.036736
0.024668
0.014953
0.009913
0.024227
0.031502
0.036638
0.029936
0.044163
0.027249
0.016167
0.029782
0.017918
0.023156
0.015076
0.025943
0.021572
0.039725
0.020891
0.041915
0.039831
0.042632
0.028204
0.046311
0.032956
0.041431
0.034336
0.019998
0.026360
0.038593
0.011670
0.037845
0.009422
0.008404
0.016937
0.028068
0.032290
0.019014
0.012806
0.020274
0.012189
0.032925
0.025647
0.009569
0.029821
0.029945
0.023297
0.027307
0.023876
0.018476
0.035642
0.026319
0.014669
0.017225
0.022191
0.013384
0.018911
0.014209
0.029515
0.022304
0.023990
0.010991
0.021063
0.010914
0.032058
0.030288
0.027798
0.025152
0.025664
0.016829
0.018913
0.030028
0.020469
0.033553
0.030068
0.033897
0.023513
0.023343
0.020073
0.019350
0.015993
0.017166
0.017224
0.019200
0.012895
0.020892
0.019832
0.009148
0.025520
0.022616
0.024629
0.035385
0.021353
0.036152
0.027552
0.033760
0.010345
0.023181
0.032068
0.019184
0.024050
0.009565
0.012360
0.032806
0.013599
0.008749
0.024741
0.032324
0.025052
0.025408
0.030298
0.031656
0.023394
0.028566
0.018839
0.016071
0.043372
0.036110
0.034924
0.032237
0.032112
0.034423
0.031837
0.032948
0.033292
0.028338
0.012200
0.018155
0.025749
0.041415
0.048432
0.028653
0.034201
0.041761
0.033904
0.032050
0.026541
0.020577
0.019763
0.038756
0.028742
0.020783
0.031449
0.031821
0.012839
0.033367
0.032716
0.024120
0.030057
0.009549
0.013404
0.024005
0.018605
0.040177
0.034642
0.030154
0.034401
0.014447
0.013788
0.010762
0.024423
0.037883
0.011387
0.017532
0.031082
0.034919
0.033786
0.031421
0.011775
0.019995
0.028266
0.015299
0.012665
0.028210
0.029424
0.017511
0.022786
0.028455
0.032476
0.030075
0.035643
0.037223
0.046240
0.040126
0.042464
0.025815
0.036404
0.044386
0.030923
0.020103
0.024687
0.017002
0.011352
0.013009
0.037308
0.018123
0.031173
0.012301
