# vtk DataFile Version 2.0
Unstructured Grid Example
ASCII
DATASET UNSTRUCTURED_GRID
POINTS 1108 float
1.001944 0.000744 -0.018353 
-1.001945 -0.000722 0.018180 
0.000953 1.010648 -0.002803 
-0.000823 -1.010889 0.002913 
-0.018061 -0.002823 0.987280 
0.017983 0.002926 -0.987382 
1.201856 0.000517 -0.012162 
-1.201827 -0.000330 0.012172 
0.000675 1.210313 -0.001902 
-0.000621 -1.210163 0.002063 
-0.012063 -0.001905 1.188028 
0.012126 0.001976 -1.187964 
0.982977 0.197284 -0.018458 
0.926477 0.386641 -0.017970 
0.834596 0.561401 -0.016654 
0.710547 0.714601 -0.014968 
0.558887 0.840547 -0.012155 
0.385337 0.934130 -0.009399 
0.196888 0.991602 -0.006279 
-0.195029 0.990624 0.000475 
-0.383603 0.932702 0.004088 
-0.556880 0.838904 0.007779 
-0.708826 0.712815 0.010988 
-0.833579 0.559568 0.013387 
-0.925571 0.384918 0.015827 
-0.982586 0.195863 0.017267 
-0.982988 -0.197136 0.018305 
-0.926239 -0.386498 0.017820 
-0.834131 -0.561192 0.016533 
-0.710109 -0.714477 0.014837 
-0.558658 -0.840555 0.012314 
-0.385226 -0.934150 0.009651 
-0.196875 -0.991535 0.006236 
0.195288 -0.990920 -0.000486 
0.383649 -0.933072 -0.004039 
0.556961 -0.839041 -0.007972 
0.708793 -0.712843 -0.010941 
0.833552 -0.559615 -0.013405 
0.925501 -0.384881 -0.015866 
0.982596 -0.195805 -0.017314 
-0.017806 -0.198604 0.969652 
-0.017009 -0.387198 0.915102 
-0.015350 -0.561661 0.825599 
-0.013285 -0.714920 0.704112 
-0.010804 -0.841201 0.554569 
-0.007531 -0.934732 0.383535 
-0.004195 -0.992185 0.197151 
0.002720 -0.990055 -0.191490 
0.006139 -0.930763 -0.377608 
0.009427 -0.835715 -0.548454 
0.012159 -0.708840 -0.697829 
0.014412 -0.555355 -0.820105 
0.016333 -0.381205 -0.910965 
0.017408 -0.192772 -0.967481 
0.017782 0.198557 -0.969693 
0.016817 0.387179 -0.915434 
0.015484 0.561703 -0.825643 
0.013365 0.714883 -0.703960 
0.010772 0.841113 -0.554472 
0.007656 0.934710 -0.383423 
0.004354 0.992171 -0.197092 
-0.002569 0.990064 0.191545 
-0.006209 0.930864 0.377365 
-0.009433 0.835663 0.548514 
-0.012258 0.708917 0.697914 
-0.014543 0.555406 0.819999 
-0.016389 0.381305 0.911172 
-0.017526 0.192877 0.967615 
0.975566 0.000178 0.175156 
0.911988 -0.000447 0.359990 
0.814234 -0.000868 0.530505 
0.687181 -0.001320 0.680328 
0.534804 -0.001991 0.804834 
0.362416 -0.002320 0.899930 
0.176105 -0.002558 0.961881 
-0.212923 -0.002813 0.975286 
-0.401105 -0.003082 0.925685 
-0.574479 -0.002695 0.839500 
-0.726221 -0.002516 0.718929 
-0.849427 -0.002360 0.570268 
-0.938036 -0.001645 0.398784 
-0.989594 -0.001232 0.212150 
-0.975542 -0.000140 -0.175297 
-0.912137 0.000435 -0.360156 
-0.814560 0.000815 -0.530580 
-0.687404 0.001312 -0.680423 
-0.534958 0.001839 -0.804556 
-0.362406 0.002267 -0.899892 
-0.176150 0.002608 -0.961903 
0.212769 0.002979 -0.975284 
0.401027 0.003080 -0.925624 
0.574287 0.002803 -0.839401 
0.726083 0.002569 -0.718943 
0.849444 0.002332 -0.570236 
0.938053 0.001771 -0.398885 
0.989419 0.001317 -0.212188 
1.187312 0.189150 -0.012202 
1.143825 0.373285 -0.012145 
1.072472 0.548352 -0.011560 
0.974358 0.710299 -0.011042 
0.852209 0.855154 -0.010075 
0.709060 0.978683 -0.008361 
0.548056 1.078385 -0.007103 
0.373331 1.151405 -0.005418 
0.189259 1.195645 -0.003976 
-0.187956 1.194984 0.000165 
-0.372056 1.149954 0.002338 
-0.546594 1.076934 0.003699 
-0.707723 0.976964 0.005266 
-0.850664 0.853496 0.006944 
-0.972709 0.709168 0.008909 
-1.071343 0.547137 0.009863 
-1.142891 0.372334 0.010784 
-1.186839 0.188313 0.011577 
-1.187239 -0.189158 0.012258 
-1.143592 -0.373195 0.012118 
-1.072101 -0.548230 0.011585 
-0.973995 -0.710073 0.010957 
-0.852194 -0.854991 0.009768 
-0.709045 -0.978529 0.008321 
-0.547958 -1.078401 0.007021 
-0.373273 -1.151353 0.005448 
-0.189246 -1.195697 0.003992 
0.188107 -1.195056 -0.000126 
0.372187 -1.150257 -0.002275 
0.546795 -1.077074 -0.003757 
0.707845 -0.977077 -0.005381 
0.850751 -0.853422 -0.007025 
0.972738 -0.709118 -0.009082 
1.071340 -0.547093 -0.009918 
1.142873 -0.372281 -0.010794 
1.186853 -0.188214 -0.011631 
0.001577 -1.194249 -0.185493 
0.003207 -1.148332 -0.368288 
0.005060 -1.073811 -0.541137 
0.006407 -0.972972 -0.699894 
0.008181 -0.848579 -0.841342 
0.009768 -0.703671 -0.961462 
0.010460 -0.542498 -1.057875 
0.011189 -0.368387 -1.128702 
0.011815 -0.185560 -1.172519 
0.011933 0.189572 -1.174425 
0.011615 0.372730 -1.132687 
0.011028 0.547676 -1.062962 
0.010172 0.709657 -0.967166 
0.008954 0.854500 -0.846757 
0.007231 0.978395 -0.705759 
0.005903 1.078627 -0.546123 
0.004578 1.152065 -0.372395 
0.002438 1.196112 -0.189674 
-0.001662 1.194091 0.185403 
-0.003179 1.148467 0.368148 
-0.004685 1.073550 0.541569 
-0.006375 0.972905 0.699893 
-0.008181 0.848654 0.841307 
-0.009942 0.703688 0.961696 
-0.010546 0.542536 1.057935 
-0.011280 0.368404 1.128866 
-0.011867 0.185500 1.172569 
-0.012056 -0.189468 1.174449 
-0.011617 -0.372830 1.132474 
-0.011015 -0.547554 1.062926 
-0.010211 -0.709580 0.967359 
-0.008900 -0.854471 0.846901 
-0.007189 -0.978455 0.705875 
-0.005877 -1.078705 0.546197 
-0.004543 -1.152085 0.372497 
-0.002388 -1.196157 0.189873 
-1.193236 -0.000794 0.199331 
-1.154195 -0.000875 0.383279 
-1.085578 -0.001333 0.558188 
-0.988333 -0.001318 0.719172 
-0.865420 -0.001874 0.860947 
-0.721397 -0.001878 0.980693 
-0.558897 -0.001915 1.075650 
-0.383245 -0.001855 1.141971 
-0.199275 -0.001981 1.179647 
0.174276 -0.001708 1.167280 
0.355341 -0.001689 1.118754 
0.526725 -0.001480 1.043691 
0.685413 -0.001186 0.944846 
0.828689 -0.000986 0.824283 
0.952087 -0.000814 0.683338 
1.053252 -0.000345 0.525736 
1.130460 -0.000014 0.354927 
1.180742 0.000220 0.174509 
1.193183 0.000855 -0.199521 
1.154297 0.001119 -0.383218 
1.085673 0.001355 -0.558190 
0.988210 0.001424 -0.719111 
0.865457 0.001827 -0.860861 
0.721432 0.001764 -0.980636 
0.558854 0.001887 -1.075546 
0.383076 0.001924 -1.142009 
0.199279 0.001933 -1.179545 
-0.174384 0.001675 -1.167391 
-0.355521 0.001652 -1.118751 
-0.526716 0.001554 -1.043529 
-0.685491 0.001474 -0.945177 
-0.828795 0.000975 -0.824424 
-0.952296 0.000774 -0.683504 
-1.053531 0.000295 -0.525895 
-1.130582 -0.000012 -0.354989 
-1.180738 -0.000192 -0.174547 
0.832200 -0.400344 -0.427617 
0.426804 -0.800142 -0.445713 
0.410588 -0.378302 -0.839279 
0.904950 -0.300692 -0.351298 
0.303009 -0.902592 -0.335599 
0.698975 -0.338116 -0.659438 
0.570761 -0.635666 -0.545754 
0.875122 -0.484773 -0.122311 
0.194249 -0.621655 -0.758519 
0.631411 -0.171112 -0.779722 
0.889256 -0.156669 -0.475301 
0.215733 -0.858575 -0.478472 
0.964668 -0.138740 -0.282204 
0.819726 -0.295063 -0.530600 
0.693947 -0.649948 -0.353169 
0.469517 -0.870957 -0.206669 
0.635143 -0.764519 -0.183661 
0.542354 -0.480272 -0.708379 
0.815338 -0.142258 -0.599690 
0.566935 -0.760447 -0.354703 
0.991623 -0.123010 -0.130556 
0.778200 -0.622642 -0.163640 
0.157524 -0.957226 -0.275869 
0.945391 -0.308782 -0.174590 
0.750578 -0.474357 -0.497665 
0.271966 -0.960395 -0.153426 
0.567399 -0.301639 -0.785605 
0.346201 -0.709396 -0.625755 
0.844887 -0.472933 -0.302631 
0.516381 -0.180754 -0.852796 
0.159068 -0.761839 -0.630684 
0.210428 -0.481248 -0.849239 
0.193533 -0.317083 -0.924623 
0.365798 -0.558919 -0.753157 
0.653812 -0.485324 -0.608720 
0.126293 -0.994171 -0.123941 
0.461951 -0.605584 -0.664274 
0.346783 -0.214685 -0.918127 
0.222454 -0.130745 -0.964185 
0.518173 0.593464 -0.648414 
0.515930 0.796798 -0.370064 
0.824574 0.380240 -0.470611 
0.417774 0.477213 -0.793486 
0.359451 0.898675 -0.310561 
0.308918 0.319102 -0.904821 
0.188017 0.167581 -0.966351 
0.780050 0.222108 -0.624899 
0.688382 0.547762 -0.521174 
0.510094 0.858458 -0.181818 
0.621070 0.181481 -0.788882 
0.193930 0.890028 -0.445611 
0.185440 0.481870 -0.862103 
0.570210 0.695917 -0.482971 
0.158398 0.966816 -0.260735 
0.408778 0.143887 -0.913101 
0.140950 0.327866 -0.933003 
0.637840 0.714265 -0.349138 
0.130264 0.633531 -0.770628 
0.181315 0.765569 -0.635459 
0.317215 0.634745 -0.724314 
0.865360 0.493317 -0.187675 
0.627576 0.402194 -0.699601 
0.389526 0.778872 -0.527487 
0.774164 0.563512 -0.351718 
0.129191 0.997507 -0.115649 
0.294707 0.958569 -0.147464 
0.715099 0.699872 -0.163037 
0.958640 0.150453 -0.302750 
0.492009 0.312347 -0.833505 
0.868089 0.417577 -0.332600 
0.893017 0.175250 -0.465688 
0.948244 0.297446 -0.194413 
0.909604 0.289567 -0.357654 
0.989736 0.131046 -0.149512 
0.742878 0.392702 -0.584607 
0.444109 0.457145 0.735599 
0.446320 0.808753 0.368442 
0.821524 0.412153 0.350606 
0.314173 0.310906 0.866674 
0.300391 0.911842 0.285820 
0.899245 0.339106 0.234869 
0.957337 0.169364 0.189526 
0.539715 0.632306 0.524158 
0.093015 0.479389 0.854651 
0.734519 0.165000 0.610698 
0.422428 0.157508 0.857014 
0.427809 0.891893 0.171430 
0.862078 0.475811 0.149093 
0.242625 0.138924 0.933186 
0.253625 0.965776 0.134240 
0.936533 0.324553 0.104230 
0.593040 0.157312 0.746257 
0.496395 0.288817 0.779868 
0.304407 0.627904 0.691379 
0.775084 0.625999 0.097403 
0.667467 0.728835 0.154001 
0.573511 0.492933 0.616213 
0.181988 0.754537 0.615273 
0.753389 0.580071 0.279089 
0.621924 0.687438 0.348669 
0.378888 0.720292 0.557774 
0.549642 0.809100 0.208268 
0.109982 0.995837 0.118747 
0.094079 0.120879 0.969080 
0.451729 0.593510 0.634601 
0.137077 0.612431 0.760786 
0.690537 0.506326 0.476617 
0.625000 0.347986 0.655993 
0.140212 0.307102 0.919627 
0.162341 0.956710 0.261234 
0.768693 0.318664 0.507488 
0.823792 0.139569 0.499052 
0.209053 0.869170 0.442390 
0.874672 0.233272 0.376337 
0.240157 0.474498 0.821464 
0.505184 -0.793840 0.331651 
0.311478 -0.374898 0.849151 
0.320904 -0.881775 0.353261 
0.132984 -0.469417 0.860351 
0.493017 -0.159950 0.818760 
0.423819 -0.892690 0.181217 
0.592824 -0.548699 0.558697 
0.247670 -0.177036 0.928138 
0.224722 -0.966988 0.177058 
0.909306 -0.375971 0.145574 
0.755360 -0.402099 0.476600 
0.735760 -0.664212 0.128070 
0.854373 -0.189499 0.435573 
0.948415 -0.182353 0.214587 
0.488012 -0.323674 0.777245 
0.556367 -0.680186 0.456323 
0.608461 -0.780705 0.152185 
0.700860 -0.641222 0.289241 
[...]
POINT_DATA 1108
SCALARS u float 1
LOOKUP_TABLE default
0.018471
0.018298
0.011052
0.011302
0.022270
0.022162
0.012314
0.012313
0.010509
0.010388
0.017102
0.017200
0.018717
0.018583
0.017920
0.017089
0.015529
0.014158
0.012636
0.009850
0.009767
0.010839
0.012501
0.014130
0.016073
0.017378
0.018550
0.018376
0.017664
0.016837
0.015611
0.014321
0.012555
0.010149
0.010087
0.011082
0.012468
0.014156
0.016099
0.017423
0.021292
0.019665
0.017527
0.015701
0.014575
0.013237
0.012321
0.010310
0.010527
0.012551
0.015392
0.018355
0.020874
0.022032
0.021243
0.019348
0.017644
0.015779
0.014499
0.013284
0.012353
0.010260
0.010752
0.012504
0.015429
0.018524
0.020784
0.022035
0.020607
0.025624
0.030431
0.033405
0.033833
0.031460
0.026914
0.018872
0.018765
0.020719
0.022616
0.023325
0.021502
0.019239
0.020477
0.025408
0.030184
0.033196
0.033950
0.031491
0.026872
0.018753
0.018682
0.020521
0.022512
0.023315
0.021599
0.019199
0.012462
0.012654
0.012530
0.012610
0.012607
0.012064
0.012056
0.011766
0.011258
0.009762
0.009080
0.008754
0.008435
0.008801
0.009878
0.010361
0.011010
0.011703
0.012505
0.012565
0.012427
0.012350
0.012273
0.011932
0.011994
0.011722
0.011310
0.009838
0.009372
0.008945
0.008624
0.008845
0.010021
0.010403
0.011010
0.011754
0.009427
0.008161
0.007754
0.008681
0.010889
0.013630
0.015591
0.017000
0.017485
0.016201
0.014567
0.012999
0.011638
0.010908
0.010481
0.011196
0.011833
0.011325
0.009313
0.008311
0.007153
0.008642
0.010913
0.013596
0.015601
0.016938
0.017491
0.016265
0.014708
0.012979
0.011585
0.010825
0.010500
0.011257
0.011852
0.011394
0.014127
0.017975
0.021196
0.022354
0.021049
0.018940
0.015628
0.012582
0.012982
0.022490
0.027374
0.031299
0.032760
0.031343
0.028911
0.024853
0.019220
0.013954
0.014257
0.018019
0.021272
0.022226
0.021024
0.018930
0.015542
0.012428
0.013022
0.022333
0.027273
0.031440
0.032463
0.031167
0.028648
0.024552
0.019100
0.013919
0.018829
0.011912
0.016482
0.018884
0.010447
0.019671
0.015139
0.015183
0.014588
0.020272
0.021399
0.011105
0.019386
0.020557
0.015288
0.011158
0.012789
0.016523
0.022308
0.013193
0.017947
0.014241
0.010094
0.017101
0.018429
0.009899
0.018604
0.012856
0.016964
0.018651
0.012823
0.016223
0.017795
0.014492
0.017796
0.010144
0.014492
0.017407
0.018345
0.021494
0.019434
0.023392
0.020063
0.017131
0.018763
0.018955
0.023880
0.022701
0.017208
0.022189
0.016070
0.017789
0.021447
0.014486
0.019363
0.018708
0.020458
0.016887
0.016688
0.018769
0.019771
0.023073
0.019245
0.021822
0.012977
0.014729
0.018651
0.020906
0.021029
0.021725
0.023274
0.019787
0.022050
0.019056
0.023673
0.028932
0.016292
0.023837
0.029397
0.012643
0.021623
0.021387
0.022885
0.021966
0.031909
0.032464
0.013635
0.019237
0.028935
0.012097
0.019473
0.034054
0.032262
0.022667
0.017454
0.016662
0.027575
0.017450
0.019990
0.019387
0.019967
0.015241
0.010840
0.025049
0.024853
0.020243
0.025197
0.030983
0.025365
0.011132
0.028707
0.029681
0.013589
0.025786
0.025424
0.013420
0.025803
0.011786
0.020763
0.031982
0.010644
0.022887
0.027469
0.010557
0.017660
0.025013
0.013866
0.026727
0.020920
0.029153
0.017508
0.012296
0.016639
0.024298
0.023272
0.014519
0.012313
0.015047
0.015765
0.019602
0.030915
0.012896
0.023955
0.020896
0.019293
0.028185
0.017896
0.017556
0.021382
0.032344
0.029794
0.021999
0.010858
0.021641
0.019562
0.023120
0.020328
0.017333
0.018738
0.018867
0.023753
0.022833
0.017392
0.022479
0.016077
0.017901
0.021119
0.014348
0.019443
0.018702
0.020442
0.016795
0.016669
0.018794
0.019396
0.023184
0.019286
0.021682
0.012971
0.014818
0.018491
0.020731
0.021025
0.021766
0.023173
0.019524
0.021899
0.018993
0.023824
0.028397
0.016110
0.023412
0.029430
0.012757
0.021464
0.021273
0.022949
0.021873
0.031878
0.032427
0.013706
0.019062
0.028822
0.012033
0.019305
0.033693
0.032192
0.022345
0.017187
0.016724
0.027451
0.017004
0.019891
0.019356
0.019889
0.015314
0.010957
0.025068
0.024306
0.020204
0.025039
0.030706
0.025446
0.011331
0.028442
0.029371
0.013674
0.025750
0.025412
0.013314
0.025742
0.011747
0.020795
0.032168
0.010513
0.022813
0.027465
0.010414
0.017631
0.024851
0.013833
0.026589
0.020793
0.029020
0.017559
0.012083
0.016537
0.024144
0.023131
0.014434
0.012342
0.015070
0.015783
0.019560
0.030820
0.012916
0.023899
0.020735
0.019056
0.028054
0.017724
0.017518
0.021254
0.032274
0.029859
0.021796
0.010720
0.018836
0.011908
0.016603
0.018970
0.010498
0.019677
0.015123
0.015210
0.014612
0.020371
0.021439
0.010762
0.019266
0.020549
0.015237
0.010997
0.012443
0.016555
0.022333
0.013101
0.017870
0.014183
0.010098
0.017136
0.018420
0.009747
0.018703
0.013026
0.016934
0.018784
0.012900
0.016317
0.017867
0.014628
0.017780
0.010019
0.014629
0.017479
0.018392
0.013696
0.020836
0.021976
0.015636
0.008102
0.015448
0.008643
0.023322
0.012428
0.009693
0.021053
0.028383
0.011486
0.015335
0.026111
0.009308
0.031064
0.014538
0.009319
0.014032
0.010762
0.007751
0.020286
0.010064
0.018325
0.017728
0.012222
0.008600
0.015280
0.010302
0.023216
0.025051
0.016898
0.016430
0.021540
0.009180
0.019326
0.029993
0.009980
0.028549
0.018614
0.031624
0.011573
0.024537
0.009455
0.020373
0.008414
0.010356
0.007999
0.013536
0.007842
0.018943
0.013128
0.010432
0.012591
0.012388
0.023988
0.027040
0.008811
0.028548
0.017533
0.025580
0.020247
0.020462
0.015042
0.015610
0.018721
0.014437
0.017305
0.012870
0.012760
0.013961
0.012874
0.022751
0.015181
0.014002
0.013715
0.022768
0.018327
0.012095
0.019468
0.018218
0.014998
0.015503
0.013644
0.019903
0.012477
0.021207
0.014171
0.015118
0.012767
0.015926
0.018183
0.017336
0.021201
0.022260
0.019788
0.021429
0.017950
0.012304
0.022401
0.014691
0.020338
0.012273
0.021280
0.016459
0.022981
0.016151
0.021223
0.017377
0.015138
0.016562
0.018238
0.019807
0.022106
0.013266
0.011470
0.018397
0.023094
0.016641
0.014618
0.014481
0.012893
0.012302
0.027524
0.017778
0.009430
0.027493
0.019482
0.025246
0.016557
0.008728
0.024586
0.015783
0.009564
0.012645
0.017311
0.012805
0.012567
0.018979
0.010380
0.009469
0.026245
0.030823
0.032356
0.027260
0.013239
0.020935
0.008461
0.023005
0.029088
0.021154
0.013238
0.021291
0.012633
0.016803
0.014914
0.019177
0.021102
0.020785
0.027408
0.011422
0.014838
0.011067
0.011237
0.012016
0.010936
0.022377
0.015458
0.024517
0.016360
0.030166
0.032295
0.030233
0.023845
0.022507
0.026043
0.012969
0.020592
0.022421
0.017766
0.009611
0.030748
0.010132
0.007937
0.010217
0.017345
0.013109
0.009840
0.011893
0.017029
0.011683
0.015268
0.012450
0.015013
0.009613
0.012919
0.009281
0.011651
0.011084
0.012320
0.007777
0.010171
0.019530
0.015747
0.016577
0.020936
0.012795
0.012417
0.009789
0.015150
0.012713
0.018543
0.014061
0.012691
0.011090
0.008466
0.009326
0.011142
0.013110
0.015203
0.012916
0.017429
0.012513
0.010288
0.010445
0.009216
0.010947
0.008526
0.010338
0.010412
0.014686
0.010900
0.015314
0.019032
0.021005
0.014001
0.019166
0.014171
0.017211
0.012659
0.014554
0.015233
0.011621
0.009329
0.019493
0.009204
0.009464
0.015620
0.024417
0.026932
0.017079
0.008688
0.016500
0.008941
0.013121
0.010309
0.015215
0.030087
0.031488
0.019426
0.010131
0.026698
0.018533
0.032270
0.011501
0.015135
0.012562
0.010300
0.008185
0.020872
0.029956
0.020573
0.013393
0.009772
0.009115
0.015713
0.026602
0.022431
0.025975
0.028752
0.021291
0.020153
0.024719
0.011690
0.020824
0.011543
0.030515
0.030131
0.022850
0.032363
0.014764
0.025953
0.012475
0.021632
0.008914
0.011450
0.011333
0.015293
0.009608
0.016363
0.020871
0.010210
0.012936
0.026011
0.016199
0.026254
0.010864
0.022743
0.020356
0.017310
0.013040
0.009780
0.011782
0.017001
0.011635
0.015274
0.009566
0.012417
0.015082
0.009666
0.009467
0.012934
0.008968
0.011086
0.012409
0.007717
0.010252
0.019522
0.015635
0.016446
0.020910
0.012774
0.012416
0.008509
0.015137
0.012600
0.018595
0.014055
0.012702
0.011445
0.010821
0.013376
0.015263
0.012750
0.017423
0.012360
0.010327
0.010690
0.009030
0.012181
0.008441
0.010506
0.010276
0.014694
0.010802
0.015369
0.018957
0.020932
0.013848
0.019144
0.014077
0.017221
0.012708
0.014547
0.011406
0.015311
0.010715
0.019417
0.008506
0.009655
0.009511
0.013668
0.020834
0.023744
0.015732
0.008149
0.015527
0.008748
0.012474
0.009836
0.028542
0.011496
0.029548
0.015299
0.026266
0.009302
0.030801
0.014520
0.009401
0.014135
0.010806
0.007847
0.020466
0.010080
0.028172
0.017706
0.012243
0.008711
0.015351
0.010393
0.022920
0.018698
0.025220
0.025883
0.017069
0.016433
0.021754
0.009155
0.019504
0.030137
0.009948
0.027384
0.018626
0.031662
0.011506
0.024707
0.009435
0.020568
0.008388
0.010464
0.008122
0.013584
0.007905
0.019081
0.013066
0.010528
0.012659
0.024318
0.012421
0.024044
0.008879
0.020894
0.019506
0.018291
0.021576
0.020729
0.015658
0.013444
0.014426
0.012568
0.017904
0.012701
0.013310
0.014746
0.018018
0.022347
0.022834
0.015240
0.018676
0.014581
0.022530
0.015496
0.016783
0.013521
0.012269
0.014176
0.013858
0.020656
0.021104
0.013704
0.012320
0.012833
0.012434
0.021762
0.020846
0.023036
0.022100
0.020679
0.017232
0.018042
0.014479
0.020945
0.018398
0.022524
0.014626
0.022815
0.017817
0.019647
0.016652
0.015738
0.014902
0.012444
0.015607
0.013304
0.019784
0.020107
0.014084
0.011526
0.021173
0.019378
0.018305
0.012239
0.014915
0.018278
0.013855
0.016120
0.016520
0.025749
0.018158
0.019829
0.022673
0.022178
0.008222
0.004268
0.016457
0.015377
0.018666
0.016540
0.027151
0.015758
0.016968
0.018231
0.027624
0.021026
0.003808
0.010647
0.013189
0.012678
0.015956
0.025623
0.021774
0.024392
0.021188
0.022681
0.018515
0.027458
0.026441
0.023862
0.022774
0.014790
0.028017
0.027491
0.010649
0.021722
0.009675
0.021042
0.031541
0.017415
0.022387
0.018373
0.030138
0.012760
0.012878
0.027221
0.013872
0.016293
0.025204
0.030364
0.021037
0.020439
0.018622
0.020201
0.014753
0.020581
0.024107
0.020593
0.020779
0.017958
0.019339
0.019876
0.020780
0.026202
0.031028
0.016008
0.021812
0.025805
0.026254
0.026305
0.029302
0.017768
0.021345
0.024159
0.029115
0.026130
0.024920
0.022920
0.026615
0.025123
0.030859
0.027540
0.022277
0.011645
0.012819
0.010110
0.016565
0.011862
0.011530
0.020077
0.022637
0.019129
0.019752
0.021117
0.021722
0.010385
0.007961
0.020603
0.006206
