# vtk DataFile Version 2.0
Unstructured Grid Example
ASCII
DATASET UNSTRUCTURED_GRID
POINTS 1108 float
0.997244 -0.003572 0.000586 
-0.997287 0.003521 -0.000551 
-0.003557 1.003694 -0.000973 
0.003555 -1.003718 0.000983 
0.000582 -0.000948 0.998914 
-0.000595 0.000985 -0.999045 
1.197413 -0.002360 0.000389 
-1.197415 0.002384 -0.000365 
-0.002356 1.203491 -0.000607 
0.002406 -1.203523 0.000641 
0.000376 -0.000631 1.198982 
-0.000371 0.000612 -1.199050 
0.976837 0.191778 0.000362 
0.919102 0.379611 0.000175 
0.826357 0.552929 -0.000009 
0.702143 0.705138 -0.000258 
0.551026 0.830645 -0.000482 
0.378585 0.924514 -0.000669 
0.191375 0.982953 -0.000824 
-0.198592 0.985622 -0.001054 
-0.386177 0.929550 -0.001116 
-0.558753 0.837421 -0.001113 
-0.709694 0.712743 -0.001069 
-0.833129 0.560641 -0.001004 
-0.924161 0.387121 -0.000891 
-0.979544 0.198984 -0.000738 
-0.976896 -0.191808 -0.000342 
-0.919141 -0.379630 -0.000192 
-0.826456 -0.552961 0.000030 
-0.702234 -0.705129 0.000273 
-0.551051 -0.830595 0.000477 
-0.378570 -0.924445 0.000659 
-0.191343 -0.982965 0.000846 
0.198623 -0.985643 0.001080 
0.386200 -0.929528 0.001132 
0.558777 -0.837431 0.001139 
0.709747 -0.712746 0.001088 
0.833131 -0.560646 0.001015 
0.924201 -0.387161 0.000916 
0.979560 -0.199031 0.000772 
0.001292 -0.196487 0.980113 
0.001913 -0.384593 0.923770 
0.002487 -0.558112 0.831938 
0.002937 -0.710239 0.708018 
0.003287 -0.835155 0.556712 
0.003499 -0.927862 0.383907 
0.003644 -0.984700 0.196180 
0.003370 -0.983972 -0.194189 
0.003061 -0.926364 -0.381770 
0.002608 -0.833166 -0.554576 
0.002063 -0.708136 -0.705961 
0.001482 -0.555989 -0.830159 
0.000797 -0.382567 -0.922520 
0.000079 -0.194488 -0.979534 
-0.001248 0.196439 -0.980198 
-0.001891 0.384577 -0.923882 
-0.002470 0.558083 -0.831929 
-0.002904 0.710203 -0.707983 
-0.003248 0.835124 -0.556693 
-0.003467 0.927832 -0.383886 
-0.003610 0.984698 -0.196168 
-0.003347 0.983977 0.194230 
-0.003043 0.926382 0.381833 
-0.002631 0.833252 0.554576 
-0.002076 0.708177 0.705972 
-0.001531 0.556007 0.830173 
-0.000835 0.382609 0.922466 
-0.000098 0.194548 0.979465 
0.978355 -0.003660 0.195422 
0.921871 -0.003651 0.382751 
0.829881 -0.003446 0.555409 
0.705995 -0.003174 0.706792 
0.554902 -0.002791 0.830998 
0.382419 -0.002209 0.923221 
0.195236 -0.001554 0.979923 
-0.194109 -0.000194 0.979466 
-0.381170 0.000443 0.922358 
-0.553665 0.001223 0.829886 
-0.704859 0.001798 0.705561 
-0.828894 0.002392 0.554160 
-0.921078 0.002870 0.381534 
-0.977934 0.003247 0.194255 
-0.978364 0.003626 -0.195385 
-0.921859 0.003645 -0.382713 
-0.829857 0.003416 -0.555373 
-0.705969 0.003158 -0.706776 
-0.554842 0.002736 -0.831036 
-0.382438 0.002138 -0.923299 
-0.195288 0.001555 -0.980053 
0.194057 0.000276 -0.979520 
0.381225 -0.000451 -0.922417 
0.553673 -0.001194 -0.829922 
0.704816 -0.001812 -0.705551 
0.828833 -0.002403 -0.554145 
0.921060 -0.002924 -0.381511 
0.977934 -0.003316 -0.194199 
1.181486 0.185315 0.000285 
1.136748 0.368237 0.000157 
1.064350 0.542029 0.000033 
0.966125 0.702640 -0.000085 
0.844270 0.846216 -0.000147 
0.701629 0.969254 -0.000299 
0.541662 1.068705 -0.000390 
0.368201 1.142086 -0.000473 
0.185366 1.187435 -0.000571 
-0.190273 1.189847 -0.000663 
-0.373653 1.146676 -0.000747 
-0.548000 1.074971 -0.000743 
-0.708600 0.976297 -0.000788 
-0.851429 0.853399 -0.000708 
-0.973127 0.709598 -0.000659 
-1.070573 0.548325 -0.000629 
-1.141352 0.373721 -0.000561 
-1.183913 0.190229 -0.000491 
-1.181554 -0.185351 -0.000277 
-1.136799 -0.368311 -0.000120 
-1.064404 -0.542050 -0.000018 
-0.966194 -0.702721 0.000090 
-0.844231 -0.846293 0.000157 
-0.701591 -0.969265 0.000321 
-0.541640 -1.068662 0.000395 
-0.368193 -1.142049 0.000491 
-0.185364 -1.187450 0.000551 
0.190279 -1.189841 0.000676 
0.373687 -1.146670 0.000745 
0.548012 -1.074976 0.000762 
0.708616 -0.976305 0.000795 
0.851456 -0.853429 0.000722 
0.973165 -0.709627 0.000669 
1.070600 -0.548359 0.000641 
1.141388 -0.373742 0.000572 
1.183928 -0.190226 0.000502 
0.002285 -1.188317 -0.187300 
0.002131 -1.143768 -0.370459 
0.001932 -1.071058 -0.544367 
0.001733 -0.972038 -0.704779 
0.001386 -0.849206 -0.847709 
0.001017 -0.705597 -0.969785 
0.000703 -0.544697 -1.067991 
0.000353 -0.370533 -1.139957 
0.000036 -0.187339 -1.183985 
-0.000794 0.188637 -1.184674 
-0.001103 0.371918 -1.141178 
-0.001408 0.546371 -1.069622 
-0.001681 0.707403 -0.971704 
-0.001895 0.851161 -0.849663 
-0.002186 0.973977 -0.706697 
-0.002259 1.072849 -0.546127 
-0.002341 1.145081 -0.371926 
-0.002394 1.189018 -0.188609 
-0.002287 1.188309 0.187282 
-0.002135 1.143785 0.370483 
-0.001924 1.071187 0.544317 
-0.001773 0.972129 0.704789 
-0.001412 0.849249 0.847742 
-0.000956 0.705603 0.969769 
-0.000711 0.544699 1.067991 
-0.000370 0.370525 1.139917 
-0.000038 0.187306 1.183921 
0.000762 -0.188518 1.184565 
0.001101 -0.371952 1.141110 
0.001437 -0.546337 1.069616 
0.001693 -0.707409 0.971701 
0.001891 -0.851182 0.849693 
0.002204 -0.974002 0.706715 
0.002275 -1.072883 0.546144 
0.002358 -1.145100 0.371927 
0.002407 -1.189024 0.188618 
-1.182502 0.002221 0.187013 
-1.138525 0.002074 0.369836 
-1.066608 0.001805 0.543551 
-0.968425 0.001593 0.703967 
-0.846458 0.001194 0.847012 
-0.703655 0.000845 0.969149 
-0.543323 0.000518 1.067565 
-0.369834 0.000138 1.139858 
-0.187057 -0.000224 1.184011 
0.187831 -0.001000 1.184395 
0.370708 -0.001371 1.140559 
0.544428 -0.001650 1.068617 
0.704742 -0.001830 0.970300 
0.847620 -0.002122 0.848086 
0.969566 -0.002337 0.704972 
1.067519 -0.002370 0.544559 
1.139245 -0.002435 0.370696 
1.182908 -0.002436 0.187839 
1.182468 -0.002218 -0.187005 
1.138482 -0.002065 -0.369810 
1.066529 -0.001800 -0.543532 
0.968375 -0.001565 -0.703945 
0.846449 -0.001196 -0.846975 
0.703684 -0.000881 -0.969151 
0.543344 -0.000493 -1.067635 
0.369775 -0.000115 -1.139918 
0.187114 0.000142 -1.184058 
-0.187825 0.000967 -1.184497 
-0.370717 0.001441 -1.140691 
-0.544460 0.001639 -1.068653 
-0.704808 0.001915 -0.970285 
-0.847618 0.002104 -0.848063 
-0.969549 0.002308 -0.704953 
-1.067497 0.002342 -0.544541 
-1.139230 0.002412 -0.370683 
-1.182915 0.002421 -0.187830 
0.818795 -0.400378 -0.413901 
0.419635 -0.797461 -0.442260 
0.394212 -0.378894 -0.836625 
0.892272 -0.302082 -0.335864 
0.299428 -0.898638 -0.333964 
0.681735 -0.338531 -0.648263 
0.559272 -0.633854 -0.538997 
0.871059 -0.485467 -0.107621 
0.182267 -0.621078 -0.762739 
0.611832 -0.173272 -0.769768 
0.872020 -0.159345 -0.459371 
0.209417 -0.855368 -0.479749 
0.952071 -0.141880 -0.265044 
0.803180 -0.295902 -0.516508 
0.685430 -0.648336 -0.342843 
0.467403 -0.867654 -0.200958 
0.631884 -0.762710 -0.174039 
0.527372 -0.479681 -0.702119 
0.795735 -0.144849 -0.585077 
0.560033 -0.757969 -0.347804 
0.983962 -0.126482 -0.112721 
0.773932 -0.622053 -0.151150 
0.156018 -0.952248 -0.276802 
0.937934 -0.310705 -0.158205 
0.736762 -0.473437 -0.485932 
0.272255 -0.955863 -0.151430 
0.549446 -0.302518 -0.777837 
0.335865 -0.707732 -0.624754 
0.835049 -0.472906 -0.289060 
0.497467 -0.182734 -0.846190 
0.149853 -0.759980 -0.634456 
0.196025 -0.481555 -0.853663 
0.177254 -0.318388 -0.930030 
0.352470 -0.558360 -0.751845 
0.639039 -0.484317 -0.599509 
0.128029 -0.988459 -0.124401 
0.449506 -0.604327 -0.660105 
0.328902 -0.216432 -0.917721 
0.204467 -0.132878 -0.968332 
0.498227 0.582944 -0.637980 
0.500525 0.784667 -0.359594 
0.804117 0.370686 -0.454111 
0.397577 0.469069 -0.786460 
0.346921 0.887391 -0.302945 
0.288858 0.313711 -0.903100 
0.168810 0.164353 -0.970743 
0.758126 0.214594 -0.609318 
0.668392 0.536622 -0.507025 
0.498678 0.846946 -0.171162 
0.599230 0.175197 -0.777277 
0.180355 0.880605 -0.442508 
0.166577 0.476491 -0.863379 
0.552089 0.683676 -0.471045 
0.148367 0.957363 -0.257334 
0.388216 0.139180 -0.908763 
0.121850 0.324104 -0.937844 
0.621608 0.702263 -0.335929 
0.112678 0.627610 -0.772062 
0.165021 0.757656 -0.633848 
0.298590 0.626146 -0.719783 
0.851784 0.483629 -0.170767 
0.605717 0.392905 -0.686912 
0.372899 0.767725 -0.519715 
0.756298 0.552274 -0.336127 
0.122094 0.988719 -0.112110 
0.285633 0.948438 -0.140875 
0.702833 0.688809 -0.148511 
0.943229 0.144083 -0.284731 
0.470732 0.305207 -0.824829 
0.850419 0.407920 -0.315774 
0.872961 0.168203 -0.448388 
0.935073 0.289837 -0.176506 
0.891741 0.281330 -0.340073 
0.979207 0.125308 -0.131161 
0.721358 0.383073 -0.569429 
0.458713 0.458293 0.757328 
0.448994 0.804367 0.381793 
0.827574 0.409007 0.371330 
0.331450 0.312527 0.887751 
0.300349 0.906056 0.295134 
0.901653 0.334748 0.255007 
0.959545 0.165159 0.210123 
0.547973 0.630834 0.542368 
0.107171 0.480713 0.868512 
0.750470 0.163716 0.636034 
0.441589 0.158245 0.881161 
0.425077 0.884416 0.181950 
0.860201 0.469884 0.167495 
0.261284 0.140240 0.953527 
0.250377 0.958060 0.141346 
0.934143 0.319074 0.123401 
0.611692 0.157158 0.772576 
0.513930 0.289789 0.804167 
0.315682 0.628317 0.707822 
0.770432 0.618622 0.113715 
0.664263 0.721742 0.169070 
0.585589 0.492744 0.637698 
0.190634 0.753700 0.627293 
0.755167 0.575412 0.297119 
0.625042 0.683361 0.365375 
0.386664 0.718941 0.573059 
0.547810 0.802418 0.221347 
0.106937 0.988780 0.122735 
0.112308 0.122513 0.984756 
0.462782 0.593468 0.653585 
0.148926 0.613040 0.774095 
0.699390 0.504521 0.497206 
0.639940 0.347878 0.680109 
0.156917 0.308774 0.936270 
0.162164 0.950691 0.267587 
0.780858 0.317124 0.530612 
0.837632 0.137469 0.523285 
0.213211 0.865655 0.451870 
0.883273 0.230336 0.398684 
0.254861 0.476137 0.839136 
0.515096 -0.794203 0.343571 
0.330985 -0.375933 0.868052 
0.330808 -0.879618 0.360961 
0.151497 -0.468408 0.872861 
0.513545 -0.161532 0.843452 
0.430134 -0.890778 0.189225 
0.609024 -0.551950 0.578187 
0.267404 -0.177007 0.947564 
0.231310 -0.962466 0.180592 
0.913509 -0.378788 0.163672 
0.770417 -0.405791 0.498452 
0.740392 -0.665621 0.142337 
0.868097 -0.192934 0.458697 
0.954049 -0.185832 0.235027 
0.507956 -0.326025 0.800106 
0.569298 -0.682356 0.471896 
0.614035 -0.780910 0.164105 
0.710377 -0.643320 0.305354 
[...]
POINT_DATA 1108
SCALARS u float 1
LOOKUP_TABLE default
0.004549
0.004479
0.005219
0.005238
0.001554
0.001495
0.003523
0.003535
0.004255
0.004314
0.001256
0.001189
0.005166
0.005683
0.005755
0.005346
0.004643
0.004200
0.004379
0.006064
0.006753
0.006840
0.006293
0.005429
0.004535
0.004152
0.005101
0.005641
0.005652
0.005266
0.004628
0.004204
0.004416
0.006103
0.006749
0.006864
0.006321
0.005436
0.004582
0.004198
0.002017
0.002705
0.003586
0.004389
0.005069
0.005440
0.005458
0.004725
0.004047
0.003267
0.002574
0.002022
0.001580
0.001390
0.001929
0.002676
0.003554
0.004334
0.005017
0.005393
0.005432
0.004704
0.004031
0.003329
0.002597
0.002053
0.001643
0.001431
0.004406
0.004168
0.003798
0.003378
0.002909
0.002320
0.001783
0.001656
0.002191
0.002763
0.003267
0.003787
0.004172
0.004401
0.004370
0.004168
0.003783
0.003373
0.002864
0.002229
0.001731
0.001657
0.002114
0.002724
0.003309
0.003842
0.004228
0.004464
0.004456
0.005208
0.005587
0.005418
0.004848
0.004041
0.003190
0.002785
0.003279
0.005320
0.006150
0.006639
0.006420
0.005713
0.004885
0.003843
0.002955
0.002873
0.004379
0.005127
0.005530
0.005318
0.004846
0.004073
0.003220
0.002785
0.003288
0.005320
0.006161
0.006652
0.006437
0.005755
0.004930
0.003885
0.002979
0.002865
0.003867
0.003305
0.002708
0.002191
0.001747
0.001473
0.001408
0.001387
0.001299
0.001332
0.001558
0.002158
0.002802
0.003436
0.004072
0.004489
0.004609
0.004572
0.003864
0.003317
0.002800
0.002272
0.001770
0.001445
0.001412
0.001432
0.001370
0.001285
0.001587
0.002152
0.002813
0.003461
0.004106
0.004530
0.004634
0.004585
0.003586
0.003577
0.003399
0.003188
0.002830
0.002521
0.002262
0.001726
0.001403
0.001305
0.001548
0.001789
0.001995
0.002350
0.002678
0.002919
0.003168
0.003365
0.003611
0.003613
0.003464
0.003222
0.002858
0.002513
0.002192
0.001711
0.001325
0.001215
0.001555
0.001761
0.002059
0.002339
0.002664
0.002911
0.003160
0.003348
0.003754
0.004665
0.001943
0.003794
0.005154
0.002877
0.003874
0.004832
0.002345
0.002596
0.003637
0.004128
0.004045
0.003356
0.004919
0.006168
0.006106
0.002694
0.003314
0.005263
0.004194
0.005424
0.005016
0.004165
0.003721
0.005934
0.002330
0.003384
0.004330
0.002231
0.003047
0.001741
0.001423
0.002479
0.003183
0.005497
0.003076
0.001685
0.001494
0.003858
0.004292
0.005036
0.003188
0.004179
0.002474
0.001895
0.004237
0.004656
0.004425
0.003348
0.004417
0.002921
0.004351
0.004726
0.002395
0.002362
0.004783
0.003581
0.004016
0.003389
0.005743
0.003965
0.003906
0.005278
0.004755
0.004281
0.005296
0.004867
0.003089
0.005417
0.004698
0.005473
0.005201
0.004968
0.004597
0.003318
0.004121
0.005177
0.002470
0.003871
0.005272
0.004909
0.004239
0.002111
0.003856
0.002575
0.004182
0.005657
0.001929
0.004080
0.005468
0.003234
0.003087
0.003069
0.005556
0.005138
0.004094
0.002956
0.005291
0.004848
0.003619
0.004604
0.004478
0.001592
0.003680
0.002489
0.004741
0.003900
0.001871
0.003992
0.004541
0.004147
0.003490
0.004671
0.002487
0.007095
0.003585
0.006876
0.003529
0.003020
0.007154
0.005651
0.002419
0.006615
0.004747
0.004934
0.006287
0.004082
0.004247
0.003813
0.006486
0.007000
0.006359
0.001858
0.002579
0.005745
0.006180
0.006537
0.005478
0.006001
0.003806
0.006485
0.004967
0.005836
0.005370
0.004515
0.005774
0.004651
0.004540
0.003406
0.002948
0.004631
0.005922
0.003881
0.004292
0.004907
0.003190
0.004186
0.002539
0.001941
0.004209
0.004635
0.004424
0.003373
0.004452
0.002925
0.004296
0.004739
0.002445
0.002359
0.004730
0.003605
0.004052
0.003435
0.005662
0.003964
0.003947
0.005293
0.004785
0.004287
0.005203
0.004792
0.003111
0.005353
0.004604
0.005380
0.005087
0.004913
0.004548
0.003289
0.004128
0.005170
0.002385
0.003819
0.005275
0.004882
0.004205
0.002054
0.003874
0.002496
0.004169
0.005552
0.001884
0.004103
0.005431
0.003253
0.003080
0.003078
0.005482
0.005043
0.004045
0.002973
0.005310
0.004819
0.003608
0.004591
0.004492
0.001524
0.003676
0.002464
0.004681
0.003883
0.001817
0.003964
0.004528
0.004162
0.003475
0.004727
0.002503
0.007038
0.003533
0.006807
0.003434
0.002996
0.007110
0.005591
0.002332
0.006576
0.004705
0.004893
0.006252
0.004052
0.004212
0.003771
0.006424
0.006968
0.006296
0.001774
0.002517
0.005677
0.006114
0.006481
0.005442
0.005926
0.003772
0.006413
0.004881
0.005784
0.005324
0.004470
0.005713
0.004606
0.004479
0.003397
0.002896
0.004589
0.005894
0.003739
0.004728
0.001976
0.003764
0.005227
0.002870
0.003897
0.004804
0.002382
0.002601
0.003590
0.004214
0.004001
0.003333
0.004902
0.006163
0.006011
0.002718
0.003287
0.005204
0.004136
0.005422
0.005005
0.004115
0.003713
0.005922
0.002345
0.003442
0.004321
0.002263
0.003094
0.001786
0.001450
0.002533
0.003192
0.005451
0.003128
0.001712
0.001518
0.005880
0.004601
0.002873
0.003366
0.006580
0.002882
0.006191
0.002076
0.002792
0.005885
0.001365
0.002924
0.004973
0.003998
0.002598
0.005281
0.001990
0.003074
0.006682
0.005083
0.004726
0.006928
0.002698
0.005511
0.002554
0.005425
0.003407
0.006614
0.002857
0.005461
0.003642
0.003767
0.004665
0.005409
0.004466
0.006541
0.004022
0.002388
0.004403
0.002801
0.003525
0.002244
0.003830
0.003195
0.005876
0.003082
0.006198
0.005887
0.006333
0.004166
0.006868
0.004877
0.006135
0.005106
0.002981
0.005715
0.003949
0.002446
0.005606
0.001758
0.001724
0.001555
0.004221
0.003152
0.002071
0.002780
0.005147
0.003027
0.004929
0.001820
0.003131
0.004799
0.001455
0.003819
0.002503
0.002155
0.003223
0.004060
0.002677
0.002028
0.005028
0.003551
0.003563
0.005387
0.003618
0.004325
0.001724
0.003700
0.002831
0.005372
0.003791
0.004250
0.002696
0.002446
0.003408
0.003832
0.002949
0.004861
0.002746
0.003159
0.003484
0.001973
0.003180
0.002626
0.003136
0.002591
0.004486
0.002817
0.004808
0.004409
0.005109
0.003037
0.005417
0.003198
0.004401
0.004150
0.003786
0.002631
0.004198
0.002433
0.004480
0.002154
0.001513
0.001754
0.003770
0.003741
0.002714
0.002161
0.004553
0.001875
0.004620
0.002572
0.001512
0.003878
0.003039
0.004886
0.002288
0.002298
0.005456
0.001858
0.003637
0.002214
0.004076
0.003086
0.002323
0.003420
0.005241
0.001744
0.002406
0.003961
0.001890
0.003806
0.004625
0.001520
0.003360
0.002943
0.004220
0.004329
0.003461
0.004730
0.002780
0.005139
0.001739
0.002572
0.004123
0.002035
0.004540
0.002423
0.005132
0.002296
0.005046
0.003338
0.002639
0.002427
0.004160
0.004423
0.003403
0.004032
0.001297
0.002938
0.004822
0.003181
0.002832
0.002899
0.002868
0.002719
0.001980
0.003370
0.004811
0.001407
0.002508
0.001332
0.002598
0.001516
0.003000
0.002011
0.004673
0.002912
0.005376
0.001383
0.004024
0.003025
0.006038
0.002132
0.001668
0.001990
0.002564
0.001289
0.002938
0.005876
0.002589
0.001683
0.002804
0.001347
0.002724
0.004173
0.004048
0.005596
0.002981
0.004379
0.003385
0.002532
0.002639
0.001363
0.001563
0.005045
0.003724
0.005216
0.002212
0.005747
0.001512
0.003639
0.001186
0.002910
0.001977
0.002493
0.001583
0.002358
0.001866
0.002644
0.003078
0.001358
0.003527
0.001938
0.005154
0.002382
0.004716
0.004627
0.004474
0.003473
0.002265
0.004907
0.002739
0.004610
0.002575
0.004593
0.002821
0.002368
0.003438
0.002889
0.002246
0.002175
0.003484
0.001741
0.002308
0.003924
0.005028
0.005376
0.003726
0.002561
0.003816
0.001995
0.004036
0.005204
0.002820
0.003029
0.003889
0.002880
0.001749
0.001488
0.003375
0.002850
0.003444
0.003895
0.003185
0.004746
0.001919
0.002848
0.002694
0.002228
0.002589
0.001774
0.004055
0.002568
0.004428
0.002558
0.004628
0.005060
0.005227
0.003247
0.003755
0.004391
0.003409
0.003995
0.004121
0.003094
0.001771
0.004550
0.001454
0.001201
0.001989
0.003347
0.004409
0.001410
0.002525
0.001332
0.002617
0.004982
0.001493
0.003017
0.004881
0.001976
0.004695
0.002859
0.001376
0.004055
0.002901
0.006095
0.002149
0.001673
0.001977
0.002583
0.001285
0.002977
0.003864
0.002574
0.001651
0.002826
0.001320
0.002735
0.004185
0.002917
0.004208
0.003333
0.002486
0.002647
0.001349
0.001567
0.005147
0.003576
0.005196
0.002186
0.005733
0.001482
0.003640
0.001185
0.002932
0.001992
0.002517
0.001573
0.002374
0.001845
0.002636
0.003079
0.001290
0.001886
0.003488
0.005357
0.002397
0.003899
0.005951
0.005658
0.005939
0.004661
0.002634
0.003405
0.006635
0.002915
0.006233
0.002808
0.005906
0.002920
0.005024
0.002615
0.004046
0.002625
0.005339
0.002025
0.003009
0.006730
0.005141
0.004767
0.006965
0.002715
0.005562
0.001872
0.005482
0.003448
0.006648
0.002864
0.005486
0.003684
0.002233
0.001480
0.003618
0.004705
0.005472
0.004471
0.006596
0.004070
0.002415
0.004448
0.002676
0.003458
0.002252
0.003874
0.003222
0.005933
0.003120
0.006260
0.005949
0.006367
0.004212
0.006916
0.004922
0.006188
0.005128
0.002987
0.003937
0.005764
0.001743
0.005652
0.001407
0.001255
0.002530
0.004192
0.004822
0.002840
0.001913
0.003028
0.001820
0.004917
0.003830
0.001429
0.004454
0.004472
0.003479
0.004078
0.003566
0.002759
0.005323
0.003931
0.002191
0.002573
0.003314
0.001999
0.002824
0.002122
0.004408
0.003331
0.003583
0.001642
0.003146
0.001630
0.004788
0.004523
0.004152
0.003756
0.003833
0.002513
0.002825
0.004485
0.003057
0.005011
0.004491
0.005062
0.003512
0.003486
0.002998
0.002890
0.002388
0.002564
0.002572
0.002868
0.001926
0.003120
0.002962
0.001366
0.003811
0.003378
0.003678
0.005285
0.003189
0.005399
0.004115
0.005042
0.001545
0.003462
0.004789
0.002865
0.003592
0.001428
0.001846
0.004899
0.002031
0.001307
0.003695
0.004828
0.003741
0.003795
0.004525
0.004728
0.003494
0.004266
0.002814
0.002400
0.006478
0.005393
0.005216
0.004814
0.004796
0.005141
0.004755
0.004921
0.004972
0.004232
0.001822
0.002711
0.003845
0.006185
0.007233
0.004279
0.005108
0.006237
0.005063
0.004787
0.003964
0.003073
0.002952
0.005788
0.004293
0.003104
0.004697
0.004752
0.001917
0.004983
0.004886
0.003602
0.004489
0.001426
0.002002
0.003585
0.002779
0.006000
0.005174
0.004503
0.005138
0.002158
0.002059
0.001607
0.003648
0.005658
0.001701
0.002618
0.004642
0.005215
0.005046
0.004693
0.001759
0.002986
0.004221
0.002285
0.001891
0.004213
0.004394
0.002615
0.003403
0.004250
0.004850
0.004492
0.005323
0.005559
0.006906
0.005993
0.006342
0.003855
0.005437
0.006629
0.004618
0.003002
0.003687
0.002539
0.001695
0.001943
0.005572
0.002707
0.004656
0.001837
