# vtk DataFile Version 2.0
Unstructured Grid Example
ASCII
DATASET UNSTRUCTURED_GRID
POINTS 1108 float
-1461.857530 6942.714463 59564.258693 
-1463.857530 4994.925031 15923.260206 
-2436.752247 5969.819747 48902.738027 
-488.962814 5967.819747 26584.780872 
-23283.356774 -5190.158831 37744.759450 
20357.641714 17127.798325 37742.759450 
-1461.807530 6991.409199 60655.283656 
-1463.907530 4946.230295 14832.235244 
-2485.446982 5969.869747 49460.686956 
-440.268078 5967.769747 26026.831943 
-24374.381736 -5748.107760 37744.809450 
21448.666676 17685.747254 37742.709450 
-1651.874179 6924.196440 61321.992643 
-1834.627024 6868.963826 62173.628314 
-2003.092975 6779.139179 62086.437825 
-2150.797982 6658.174412 61063.771857 
-2272.065822 6510.718131 59144.930891 
-2362.236242 6342.436999 56403.654908 
-2417.844042 6159.797966 52945.289607 
-2418.234223 5779.803098 44431.353159 
-2363.001609 5597.050254 39702.967815 
-2273.176963 5428.584302 34899.291192 
-2152.212195 5280.879296 30204.925889 
-2004.755914 5159.611455 25800.273732 
-1836.474783 5069.441035 21854.603033 
-1653.835749 5013.833235 18519.543704 
-1273.840882 5013.443054 14165.526256 
-1091.088037 5068.675668 13313.890585 
-922.622085 5158.500314 13401.081074 
-774.917079 5279.465082 14423.747042 
-653.649238 5426.921363 16342.588008 
-563.478818 5595.202495 19083.863991 
-507.871018 5777.841528 22542.229292 
-507.480837 6157.836395 31056.165740 
-562.713452 6340.589240 35784.551084 
-652.538098 6509.055192 40588.227707 
-773.502865 6656.760198 45282.593010 
-920.959146 6778.028039 49687.245167 
-1089.240278 6868.198459 53632.915866 
-1271.879311 6923.806259 56967.975195 
-22674.084566 -4975.937277 35567.731511 
-21249.676798 -4341.114848 33474.327105 
-19064.872662 -3310.087415 31544.994591 
-16203.632956 -1922.476783 29853.877133 
-12775.913518 -231.608051 28465.963428 
-8913.439682 1697.539644 27434.590221 
-4764.644152 3790.830238 26799.392607 
3749.292296 8144.847686 26799.002426 
7787.247411 10238.252091 27433.824854 
11469.726181 12167.584606 28464.852288 
14655.213012 13858.702064 29852.462919 
17221.291431 15246.615768 31543.331651 
19069.348483 16277.988975 33472.479346 
20128.364373 16913.186590 35565.769940 
19748.369505 16913.576771 39919.787388 
18323.961737 16278.754342 42013.191794 
16139.157602 15247.726909 43942.524309 
13277.917896 13860.116277 45633.641766 
9850.198457 12169.247545 47021.555471 
5987.724621 10240.099850 48052.928678 
1838.929091 8146.809256 48688.126293 
-6675.007357 3792.791808 48688.516473 
-10712.962472 1699.387403 48053.694045 
-14395.441242 -229.945112 47022.666612 
-17580.928073 -1921.062570 45635.055980 
-20147.006491 -3308.976275 43944.187248 
-21995.063544 -4340.349481 42015.039553 
-23054.079433 -4975.547096 39921.748959 
-5718.844969 4746.992625 59145.179009 
-9812.277197 2598.224918 57903.654774 
-13584.845910 578.987280 55887.397066 
-16891.573408 -1233.122118 53173.889541 
-19605.384007 -2768.464930 49867.410769 
-21621.987487 -3968.038792 46095.026876 
-22863.886909 -4785.744753 42001.708459 
-22864.277090 -5165.739620 33487.772011 
-21622.752854 -4713.425538 29394.339783 
-19606.495147 -3850.598759 25621.771070 
-16892.987621 -2610.417235 22315.043572 
-13586.508849 -1040.540444 19601.232973 
-9814.124956 798.702128 17584.629493 
-5720.806540 2836.629420 16342.730071 
2793.129908 7190.646869 16342.339890 
6886.562137 9339.414575 17583.864126 
10659.130850 11358.652213 19600.121833 
13965.858347 13170.761612 22313.629359 
16679.668946 14706.104424 25620.108131 
18696.272427 15905.678286 29392.492024 
19938.171849 16723.384246 33485.810440 
19938.562029 17103.379114 41999.746888 
18697.037794 16651.065031 46093.179117 
16680.780086 15788.238253 49865.747829 
13967.272561 14548.056728 53172.475327 
10660.793789 12978.179938 55886.285926 
6888.409896 11138.937366 57902.889407 
2795.091479 9101.010073 59144.788829 
-1621.788691 6978.983682 62206.136060 
-1777.856440 6941.684577 63154.643565 
-1926.167870 6880.430310 63477.450770 
-2063.071062 6796.729166 63166.609090 
-2185.195004 6692.642145 62229.772478 
-2289.532601 6570.732214 60690.008960 
-2373.514714 6434.001200 58585.232626 
-2435.073424 6285.815875 55967.270052 
-2472.692953 6129.825054 52900.584168 
-2473.021466 5809.888586 45732.280103 
-2435.722360 5653.820837 41807.169359 
-2374.468094 5505.509407 37782.003978 
-2290.766950 5368.606216 33755.896889 
-2186.679928 5246.482273 29827.984211 
-2064.769997 5142.144676 26094.984191 
-1928.038984 5058.162563 22648.815677 
-1779.853659 4996.603853 19574.334777 
-1623.862837 4958.984324 16947.245413 
-1303.926369 4958.655812 13281.382840 
-1147.858621 4995.954917 12332.875334 
-999.547191 5057.209183 12010.068129 
-862.643999 5140.910327 12320.909809 
-740.520056 5244.997349 13257.746422 
-636.182460 5366.907280 14797.509939 
-552.200347 5503.638294 16902.286274 
-490.641636 5651.823619 19520.248847 
-453.022107 5807.814440 22586.934731 
-452.693595 6127.750908 29755.238796 
-489.992700 6283.818657 33680.349540 
-551.246967 6432.130086 37705.514922 
-634.948111 6569.033278 41731.622011 
-739.035132 6691.157221 45659.534688 
-860.945063 6795.494817 49392.534709 
-997.676077 6879.476930 52838.703222 
-1145.861402 6941.035641 55913.184123 
-1301.852224 6978.655170 58540.273487 
3131.294181 7800.713961 26170.922508 
6589.733178 9588.550859 26599.974726 
9849.890667 11287.257964 27303.423908 
12831.490751 12855.007470 28263.948800 
15461.116539 14253.196179 29457.898093 
17674.017919 15447.396047 30855.872791 
19415.705913 16408.201909 32423.450119 
20643.294383 17111.955535 34122.031119 
21326.556027 17541.328177 35909.791090 
21006.619559 17541.656689 39575.653663 
20011.299345 17112.604471 41363.490562 
18487.214120 16409.155289 43062.197667 
16471.891920 15448.630396 44629.947172 
14014.956667 14254.681104 46028.135882 
11176.906260 12856.706405 47222.335750 
8027.622920 11289.129078 48183.141612 
4644.652454 9590.548078 48886.895238 
1111.294823 7802.788106 49316.267879 
-6057.009242 4136.925533 49316.596392 
-9515.448239 2349.088635 48887.544174 
-12775.605728 650.381530 48184.094992 
-15757.205811 -917.367976 47223.570099 
-18386.831600 -2315.556686 46029.620806 
-20599.732979 -3509.756553 44631.646108 
-22341.420973 -4470.562415 43064.068781 
-23569.009444 -5174.316041 41365.487780 
-24252.271088 -5603.688683 39577.727809 
-23932.334620 -5604.017195 35911.865236 
-22937.014406 -5174.964977 34124.028338 
-21412.929181 -4471.515795 32425.321232 
-19397.606981 -3510.990902 30857.571727 
-16940.671728 -2317.041610 29459.383017 
-14102.621321 -919.066912 28265.183149 
-10953.337981 648.510416 27304.377288 
-7570.367515 2347.091416 26600.623661 
-4037.009884 4134.851388 26171.251020 
-5048.046635 3125.888781 15114.478382 
-8543.906486 1375.549664 15953.929523 
-11865.407411 -261.687901 17329.918593 
-14930.763034 -1745.509689 19208.564174 
-17664.494126 -3039.379084 21543.607778 
-19999.287154 -4111.436727 24277.552882 
-21877.651767 -4935.285001 27343.080682 
-23253.336393 -5490.638028 30664.707712 
-24092.467110 -5763.821173 34160.644490 
-24092.138598 -5443.884705 41328.948555 
-23252.687457 -4858.642990 44824.808406 
-21876.698387 -4006.793209 48146.309331 
-19998.052805 -2909.310729 51211.664953 
-17663.009202 -1593.219212 53945.396045 
-14929.064098 -90.925199 56280.189074 
-11863.536297 1560.579846 58158.553686 
-8541.909268 3320.630387 59534.238312 
-5045.972490 5145.888140 60373.369029 
2122.331575 8811.750712 60373.040517 
5618.191426 10562.089830 59533.589376 
8939.692351 12199.327394 58157.600306 
12005.047973 13683.149183 56278.954725 
14738.779065 14977.018578 53943.911121 
17073.572094 16049.076221 51209.966018 
18951.936706 16872.924495 48144.438217 
20327.621332 17428.277522 44822.811187 
21166.752049 17701.460667 41326.874409 
21166.423537 17381.524199 34158.570345 
20326.972396 16796.282484 30662.710494 
18950.983326 15944.432702 27341.209569 
17072.337745 14846.950223 24275.853946 
14737.294141 13530.858706 21542.122854 
12003.349038 12028.564692 19207.329825 
8937.821237 10377.059648 17328.965213 
5616.194207 8617.009106 15953.280587 
2120.257429 6791.751354 15114.149870 
7976.620329 11395.201799 51183.430682 
8976.542619 11317.736074 37994.835423 
17189.398714 15702.879624 42132.054513 
6178.950711 10597.095495 53898.137091 
6712.387012 9991.898704 34232.818169 
13036.374549 13880.066439 48879.503839 
10931.464960 12535.717283 42882.361647 
1374.862134 8026.980634 51363.445658 
15807.642870 14667.734134 34774.551769 
15533.817624 15172.001562 49205.284959 
8739.974311 11958.988361 55063.908298 
9852.934160 11531.751570 32747.027264 
4478.079189 9866.490746 57014.578393 
10117.916830 12527.620055 52017.931622 
6663.664430 10468.885213 45476.970469 
3780.438637 8671.851443 38252.514392 
3092.482316 8532.943773 43022.463652 
14347.544180 14328.973595 43915.274840 
11472.937805 13289.312435 53554.477365 
6877.189440 10400.805993 41506.043540 
1135.372091 8195.904356 57885.650559 
2456.740565 8416.938765 47706.232312 
5518.550323 9214.538852 30494.476399 
2308.739168 8658.010020 54798.288914 
9619.197055 12118.422123 48567.290270 
2787.597574 7929.642034 32998.881529 
15832.703036 15199.016835 46388.079975 
12875.258595 13274.755405 37167.654647 
5322.191972 10016.943667 50719.617176 
17212.031877 15913.770022 46594.597885 
13139.577631 13202.101950 32510.274391 
17660.045065 15698.438149 36639.845722 
19170.556739 16534.407014 38058.546783 
15508.707195 14712.603860 39205.659263 
12109.281271 13290.950445 46305.654934 
2230.116704 7487.488476 29479.041587 
13548.113280 13781.624741 40813.589496 
18804.695531 16546.606760 42523.426900 
19825.885964 16989.200891 40735.692511 
11905.407074 13585.027434 55205.123785 
5620.591538 10474.294787 57515.730028 
8109.744350 11837.293235 59545.917585 
15257.770820 15143.704676 51717.457291 
4275.255336 9687.106408 55289.471676 
17957.261291 16339.930092 47590.459679 
19581.268234 16978.162195 43284.176641 
11654.838248 13526.579137 56777.826619 
[...]
POINT_DATA 1108
SCALARS u float 1
LOOKUP_TABLE default
59985.349461
16752.296672
49325.879184
27250.990217
44650.238843
46177.769857
61074.406997
15703.513894
49881.497673
26706.115894
45296.165458
46876.671549
61733.787393
62578.804013
62487.524120
61463.282360
59545.497583
56808.177614
53357.114183
44870.779402
40164.962989
35391.889389
30738.359430
26387.225990
22509.737302
19257.258268
15080.413601
14287.879233
14389.389477
15379.339978
17232.736723
19895.415866
23276.697009
31665.031097
36346.471111
41112.156160
45775.916176
50155.968997
54081.933482
57401.325467
42471.942249
39885.579390
37006.169724
34021.503204
31201.869632
28895.846216
27482.297070
28259.665633
30300.456928
33013.700383
36028.742021
39039.509979
41822.173054
44229.032200
47641.665688
48640.917687
49233.800981
49506.364472
49559.819271
49495.598830
49399.279557
49289.818352
49262.288579
49176.833094
48941.557266
48454.859288
47621.536009
46367.190129
59610.229562
58786.381134
57517.344415
55805.528949
53653.825546
51067.979740
48059.657964
40875.619850
36792.882064
32490.806753
28108.593544
23871.319799
20152.979341
17545.407454
18071.826320
21068.171826
25036.779573
29435.752478
33925.387886
38295.279246
42409.612630
49539.127752
52454.639547
54901.494406
56869.132535
58355.865203
59365.834518
59906.298181
62617.416487
63559.860048
63878.276791
63564.671085
62626.706976
61087.521908
58985.164665
56371.672036
53311.807981
46165.996384
42257.839176
38254.620545
34256.651518
30364.531132
26676.642834
23286.536144
20280.081729
17732.247094
14236.662078
13355.819315
13069.779954
13378.445851
14277.005892
15753.826714
17784.600461
20328.180566
23326.325401
30383.241403
34265.219744
38254.340774
42250.391456
46153.243659
49865.341801
53294.085462
56354.076399
58969.187386
27488.144805
29033.772741
31143.966462
33597.706800
36194.369656
38770.469825
41201.397499
43397.659934
45300.259692
48117.527697
49033.694464
49653.350968
50018.719942
50182.182284
50201.629197
50135.088664
50034.912871
49942.094209
49858.834853
49859.979267
49852.772786
49790.962445
49619.537076
49280.622269
48719.223360
47888.370978
46753.505433
43517.207947
41439.892520
39113.226832
36615.941731
34061.167092
31600.834501
29426.185292
27756.078762
26801.656750
16238.410566
18149.130176
21003.421855
24390.456148
28023.936092
31720.798249
35363.268054
38873.033397
42196.439070
48146.351938
50729.507192
53034.349218
55054.141648
56785.316064
58226.289592
59376.451744
60235.328162
60801.943430
61049.739521
60723.944983
60092.319657
59149.975203
57892.542340
56317.015723
54422.701454
52212.237836
49692.679702
43783.793819
40442.269460
36891.403755
33185.479494
29400.491599
25646.293656
22088.329421
18982.181522
16705.396383
53040.165152
40648.752974
48137.664945
55276.746010
36287.970879
52458.214152
45995.521332
52005.217934
40918.932436
53783.931138
57021.730413
36089.838639
58035.226439
54453.867046
47140.136308
39405.259360
43969.660456
48371.305508
56359.244782
43338.909607
58474.125730
48505.526858
32331.222359
55526.230727
50972.652528
34052.896255
51318.637726
41514.847767
51972.823482
52159.623132
37468.912170
43598.936794
45710.222779
44655.670809
49674.446924
30497.071491
45158.521189
49353.029597
48385.645905
58085.627279
58731.425629
61250.616726
56007.872194
56294.376263
53426.339482
50450.727455
59519.500531
60394.696827
58791.045659
57106.548727
53237.529699
52144.036376
59275.770404
52584.220762
53777.246372
50635.157261
60375.043018
51631.570046
52856.369096
54976.253776
62503.811707
58731.062270
56596.103858
61667.909968
52007.669064
55187.911795
61470.209760
61063.477191
56216.328962
62058.429486
60515.594150
62185.059604
61660.629708
61217.969866
60260.849875
56105.967843
57634.465761
61364.573186
53053.083270
55268.787849
61851.273325
61126.901774
58525.588041
50191.771187
58141.531739
53547.024110
57492.076418
62342.545807
50509.872723
54440.631388
62225.473877
56088.240059
55770.907317
54630.623928
62002.378389
60884.823911
58323.401551
52829.430731
61459.435082
60036.493017
56238.281838
59323.091520
51628.432966
47814.429054
56947.768129
51567.550864
60141.603033
58128.219641
50057.558385
52690.763094
59943.270666
59108.039476
53535.551008
60642.481678
52814.194260
41021.591332
45554.684326
36207.412623
41198.182049
51213.260640
37718.969179
46871.873319
47259.717119
32608.867055
53927.877429
51466.680419
46923.523230
55766.240591
57076.280178
48941.657593
43985.215425
42904.401346
46788.981689
45289.201970
43679.911877
35467.839622
32317.453812
39402.932738
50858.524767
43047.757343
54108.523826
35885.654938
45373.134360
48424.068634
50995.683268
49907.454695
40018.995753
38337.546758
42189.496506
52441.731872
48947.341341
53928.696322
29551.075421
25179.533424
19953.613012
19387.980826
30097.821177
21560.767647
35123.488158
39610.030429
23772.338910
20874.582735
18208.496048
29289.138983
26048.506153
35145.838577
21113.412151
24729.700515
35150.734312
38438.365955
18216.678364
33442.065004
29508.362164
29407.257187
14773.099399
25815.441089
24185.907167
17150.092505
24612.151950
21565.962707
15566.562568
17289.282734
30952.761058
16628.965015
20065.337824
15171.463011
17372.478827
15848.742120
22250.768967
30750.381246
22612.487470
19012.117552
36096.815668
23587.676623
16868.202866
16902.065520
24522.854703
38293.945821
26258.952196
35356.130822
20289.756898
15518.709464
39692.908575
22875.154417
15184.406208
30793.378719
31897.869975
31041.727392
15420.215245
16965.314474
26463.427900
31035.798554
17919.665011
20219.500770
27058.211136
18968.166816
25478.142161
42909.713046
27977.759478
35063.761370
22270.964812
27367.224343
39860.688277
25689.575486
22897.240302
23265.810294
27365.706178
19915.261058
35329.484285
36942.910291
41622.279849
41860.641382
45926.672590
36121.824092
39105.141105
34473.867949
42136.884182
44166.697131
23117.488710
29050.792070
29814.546943
24725.627829
20715.823930
37010.182336
35562.945590
33858.782906
31001.888187
45036.568718
45431.476681
45618.280865
46222.108073
40502.116420
26023.295263
38407.518575
29241.546224
43486.600595
38520.194768
30964.607117
27081.097588
33616.511013
42243.718661
46093.510547
43013.954444
33336.976029
39195.175267
24629.125384
46991.836220
26642.173535
39340.884562
39131.993632
23468.314790
42409.815344
31088.466669
35431.984201
24814.162209
44898.465714
32278.618379
23519.639530
44611.222709
20008.269036
26856.303061
31539.036548
37974.419594
33192.866360
36067.024170
26270.862820
35400.035646
18447.380748
28515.696425
45859.154396
21591.231998
29699.523480
43057.713018
34773.958060
41470.640501
26175.104017
35441.102309
45898.568563
44124.686885
43706.164650
40790.160355
32854.387926
46509.621106
38431.891518
39749.361721
41842.175767
32528.167366
37045.536813
41803.431644
23190.845763
41679.601077
20992.139847
44104.710030
19033.308858
44826.358573
30611.345067
44480.724432
34842.062883
44527.535436
25547.738746
46566.032949
36240.716363
46903.425315
35019.513847
28231.122514
25781.694888
36445.684175
21381.643239
46901.283094
45981.886785
34824.333663
21939.556884
40938.549571
18645.600927
47357.358392
39395.014735
40480.479215
46834.264749
34876.049431
41160.889525
38218.383696
33766.010652
39790.703593
27128.120311
28497.662125
47890.249721
37766.257902
43369.650958
32001.243562
47525.123366
27630.535104
43150.330571
24243.696866
43420.996974
30182.479967
32174.005450
24931.736442
38692.061573
31091.089847
36915.823859
47658.978672
17283.097788
40599.818240
30688.696487
44301.133945
28847.976158
44333.872417
45797.108845
61626.773662
59238.389427
56048.908020
56982.755441
63280.105115
55176.877036
62998.343746
53693.866742
54487.366226
63024.439506
50851.070256
60249.227134
55287.278655
58401.122945
53525.101840
61056.179484
56736.984364
52461.830368
62936.530229
60383.926740
60264.508377
63693.289108
53017.118660
61874.459030
55296.708394
60611.605899
57375.600307
63686.671178
52439.885045
62112.942272
57416.631163
57535.437548
59496.898685
60623.746782
59069.725361
62710.386938
58217.776706
52434.818174
59537.473583
55372.108305
57452.650632
52668.983272
58385.196166
56156.612804
61708.598329
55847.395441
62550.153567
61969.051273
63012.278729
58872.119361
63526.069710
59738.962703
61860.092252
62107.167556
52060.303627
61364.860407
57856.589323
54670.915815
61969.361826
52073.956953
53050.341602
50823.455365
59745.644571
59330.710776
57587.606412
53822.247876
62410.195685
51906.684413
62655.975868
55447.968656
50177.090486
61755.557636
53167.701395
62366.348559
54598.793272
60768.062167
63502.930624
52170.297256
60051.088809
52606.928404
60955.099451
57780.114439
55626.739836
60161.346030
63514.366497
50789.805259
57943.475396
59787.981786
52996.862628
61382.757432
62851.616569
49286.379914
58159.912813
57355.117500
60678.496769
60746.277606
58397.284821
62273.254658
56079.035127
63019.907024
51655.351264
55365.513306
59444.192479
52306.753785
61911.044974
54736.542232
62878.537044
63081.981626
53604.929630
59342.910891
57449.205103
55341.118400
61565.839038
61199.141343
58277.147797
61947.386366
48015.333800
61959.759372
56773.721671
55448.723730
58536.071208
52839.431435
56206.990251
52146.949223
32415.620167
36473.340148
40304.825979
40376.454026
22590.163154
42326.316947
20530.072862
43491.629521
42020.181042
18105.457182
46408.193761
43686.919122
30236.562746
34542.434771
45653.747496
25575.919681
46853.383499
36204.241735
28193.553828
35204.247185
34528.594840
24404.890167
45385.854452
21589.573797
39846.965960
34316.976062
38900.898345
20791.641578
44941.649855
18793.892094
39131.841928
39968.510933
34263.652106
33184.920882
37549.268601
26663.955672
39224.734087
47174.888950
28716.034154
43200.055912
37153.070936
46927.229096
32116.858748
42446.407162
27216.928701
42418.616740
23890.522489
31426.980625
27879.567440
37524.515408
24163.466071
36620.443619
30720.458593
17021.973787
44321.192991
30154.166210
39926.040335
43371.599377
30696.535503
42456.298611
46696.182635
47501.595721
19929.727660
27751.563024
35285.623501
16503.620807
22210.926522
16096.112433
23365.332146
38403.302197
14472.505112
22710.691019
42402.323557
30779.974092
26735.777539
33871.393988
29434.820752
22885.097121
37257.772870
33828.113596
19704.908147
17285.623835
14439.826349
17524.425850
26919.388984
18850.288972
38243.127761
23828.449937
14246.807223
20223.286561
25576.412246
16371.669905
31593.021098
28093.404573
30358.214522
26563.436781
25178.546871
23332.791621
19468.740135
32951.918085
26822.620330
30500.481587
34537.974624
30138.790663
35016.614184
22562.302293
27245.596010
25022.518458
19131.948214
17024.977414
14833.937745
15881.067400
20091.222906
23421.662268
21610.759725
24982.086164
15198.961141
26827.334385
23810.628932
34565.075763
15523.392482
41460.721382
37201.317706
40289.918571
51960.579796
45164.882657
37416.288647
49405.091014
56467.472741
48464.338327
57430.955825
49542.471908
59601.452218
41587.112028
47593.832954
38767.806861
43278.569753
42713.274306
51550.180646
35316.809161
40409.963827
54662.872669
51804.697167
53934.750824
57662.234639
45124.980156
55446.927390
33821.203358
48646.573658
51504.958715
58692.986746
46682.292778
58154.774408
41354.736775
36344.412032
30529.380526
42301.980103
45018.718584
47743.829163
45929.849061
53368.144334
48418.851606
39388.979561
48083.043672
38173.973358
40705.194254
37429.359803
44704.465785
44819.053514
51151.226778
46791.188722
54348.027964
54439.186348
56833.438623
51367.460031
56518.163039
48622.327258
50961.831698
59892.785112
47711.904993
45395.991071
49447.952921
33459.054287
56044.818448
31751.840181
29197.880913
46334.115812
46580.345563
46964.059489
54993.171283
35795.086229
56949.363941
33068.400539
57920.825920
31734.402224
53691.806573
38484.595484
51848.055804
41143.820793
56658.286817
33985.871131
52454.082377
40443.488001
42761.548186
49966.156883
51085.771206
40279.926775
58175.526145
31315.580749
50148.641628
46341.188222
55062.049106
35714.809856
59183.647209
29621.775588
46745.356095
43775.467624
48769.018359
50026.374494
43070.471962
43985.105382
48847.571086
39158.780692
52612.510879
56191.343268
34989.414061
49871.721973
43517.090628
54598.805832
37475.724489
54185.386941
37427.788526
55535.892993
35245.728442
47110.558996
44506.545540
52786.614106
38574.459183
49422.827828
43141.134822
28892.802734
59709.929761
51596.352823
40813.031574
47386.075668
47780.129967
45895.780802
45929.435441
26295.078034
20760.800064
16477.453631
22440.509889
35229.727110
22236.885376
37483.553754
24722.119781
40733.218734
15890.988582
26616.377142
14842.752460
22474.379709
16841.960959
31737.828600
13386.493709
21540.320705
30401.004433
25097.432590
27783.115068
34851.350620
19518.200824
36295.442120
18311.894200
23396.633494
25324.458298
37878.703555
22226.909247
39873.208557
18307.802581
13833.201646
16397.627889
17324.571457
22494.950331
23850.264201
20235.696605
30697.767851
21207.149451
14940.322595
28779.744050
15134.728638
19816.539041
13947.877059
25368.236584
17999.416578
29706.504665
19794.302474
33422.830631
28775.887954
32528.757662
24428.146274
34098.262200
22137.319735
26752.870578
42407.702558
24572.708768
26708.845041
18861.335154
15622.785692
30911.243614
14511.208487
14866.693766
41261.637610
34044.689174
44756.921883
37488.668590
30307.112331
41745.517502
39976.428668
33104.004901
36863.133728
38105.242931
34553.350376
26997.671007
29487.033041
30985.121149
33242.517194
44262.836647
45330.386217
48547.988522
36512.445675
40633.399102
32076.294811
28395.482672
28669.887407
26603.750415
34506.776053
21270.265100
24807.714933
24914.043828
21461.987750
48041.480721
45094.351284
41791.129746
39953.738481
40494.986859
37910.254447
43441.563816
45987.938962
32329.232444
56351.594157
44411.965156
48976.413767
47150.367630
41704.341049
54541.625839
51199.370849
49011.107456
49121.741291
47222.815721
43634.706143
47290.643511
47725.493601
49918.610361
51658.075171
44462.702104
46092.743366
47899.481566
46162.026660
44053.025027
56463.652707
52146.673689
52756.719496
46210.309136
44493.703415
41041.447058
46734.722297
21436.331300
41165.350626
35920.048758
26861.719543
23256.810212
24204.248908
22443.635969
39296.800393
34307.417259
27753.406166
36010.094258
37640.893053
29145.742765
27503.285628
40974.772255
42672.205970
39225.338872
37766.232683
32518.252963
34239.679285
33099.176212
39890.929390
38015.302777
39826.357559
39124.636933
40198.238901
36135.847256
23139.899099
33359.149674
33725.748906
43830.306683
41990.163979
36726.359102
45420.306264
34227.648710
30598.587861
37960.993454
