# vtk DataFile Version 2.0
Unstructured Grid Example
ASCII
DATASET UNSTRUCTURED_GRID
POINTS 1108 float
0.999720 0.000606 -0.000063 
-0.999542 0.000978 -0.000073 
0.000193 1.000170 -0.000160 
-0.000627 -1.000769 0.000229 
-0.000603 -0.000957 0.999986 
0.000110 -0.000200 -0.999963 
1.199749 0.000719 0.000058 
-1.199520 0.001305 -0.000069 
-0.000071 1.200201 -0.000149 
-0.000693 -1.200776 0.000175 
-0.000534 -0.001252 1.199980 
0.000189 -0.000572 -1.199964 
0.980880 0.195723 0.000115 
0.924119 0.383388 0.000149 
0.831972 0.556338 0.000160 
0.707491 0.707793 0.000298 
0.555924 0.831948 0.000342 
0.382974 0.923920 0.000183 
0.195287 0.980870 0.000054 
-0.194913 0.980532 -0.000382 
-0.382475 0.923823 -0.000518 
-0.555313 0.831423 -0.000488 
-0.706819 0.707488 -0.000490 
-0.831360 0.556210 -0.000401 
-0.923622 0.383554 -0.000365 
-0.980626 0.195967 -0.000385 
-0.980888 -0.194090 0.000104 
-0.924423 -0.381664 0.000382 
-0.832096 -0.554484 0.000621 
-0.707952 -0.706062 0.000944 
-0.556294 -0.830594 0.001158 
-0.383342 -0.923778 0.000804 
-0.195716 -0.981095 0.000508 
0.194430 -0.981235 -0.000238 
0.382038 -0.923902 -0.000474 
0.554946 -0.830702 -0.000584 
0.706534 -0.706509 -0.000407 
0.830663 -0.554981 -0.000149 
0.923533 -0.382050 -0.000090 
0.979864 -0.194525 -0.000185 
-0.006136 -0.196003 0.980779 
-0.010924 -0.383532 0.923820 
-0.013982 -0.556331 0.831560 
-0.014896 -0.707767 0.707208 
-0.013825 -0.832107 0.555749 
-0.010726 -0.924617 0.382877 
-0.006144 -0.981222 0.195263 
0.005494 -0.980997 -0.194829 
0.010486 -0.923353 -0.382458 
0.014146 -0.830875 -0.555435 
0.015444 -0.706932 -0.707071 
0.014484 -0.555524 -0.831432 
0.011252 -0.382762 -0.923801 
0.006187 -0.195247 -0.980784 
-0.006069 0.194911 -0.980733 
-0.011264 0.382649 -0.924060 
-0.014445 0.555555 -0.831742 
-0.015267 0.707178 -0.707412 
-0.013868 0.831814 -0.555852 
-0.010353 0.923769 -0.382910 
-0.005441 0.981510 -0.195320 
0.006374 0.980480 0.194920 
0.011469 0.923372 0.382541 
0.014834 0.830837 0.555437 
0.015516 0.706296 0.707011 
0.014239 0.554788 0.831534 
0.010779 0.381819 0.924047 
0.005592 0.194160 0.980717 
0.979623 -0.005570 0.195007 
0.922631 -0.010572 0.382534 
0.830277 -0.014104 0.555426 
0.706202 -0.015557 0.706949 
0.554713 -0.014545 0.831316 
0.381892 -0.011236 0.923904 
0.194347 -0.006515 0.980823 
-0.195687 0.005133 0.980696 
-0.383162 0.010129 0.923791 
-0.556132 0.013744 0.831296 
-0.707753 0.015097 0.706996 
-0.831684 0.014519 0.555507 
-0.923639 0.011508 0.382637 
-0.980278 0.006924 0.195085 
-0.980852 -0.005641 -0.195172 
-0.924450 -0.011012 -0.382862 
-0.831844 -0.014977 -0.555809 
-0.707107 -0.016570 -0.707359 
-0.555530 -0.015436 -0.831677 
-0.382618 -0.011969 -0.924042 
-0.194987 -0.006683 -0.980886 
0.195176 0.006359 -0.980746 
0.382772 0.011738 -0.923804 
0.555569 0.015214 -0.831561 
0.707058 0.016120 -0.707190 
0.831583 0.014723 -0.555587 
0.924449 0.011174 -0.382741 
0.981402 0.006488 -0.195137 
1.185302 0.188424 0.000241 
1.141490 0.371480 0.000190 
1.069703 0.545425 0.000120 
0.971142 0.706048 0.000102 
0.848762 0.849289 0.000246 
0.705579 0.971533 0.000405 
0.544974 1.069653 0.000432 
0.370851 1.141275 0.000350 
0.187662 1.185299 0.000112 
-0.187761 1.184992 -0.000363 
-0.370806 1.141193 -0.000647 
-0.544685 1.069130 -0.000725 
-0.705253 0.971167 -0.000537 
-0.848353 0.849159 -0.000493 
-0.970553 0.706265 -0.000423 
-1.069151 0.545797 -0.000303 
-1.141004 0.372004 -0.000407 
-1.185084 0.189019 -0.000392 
-1.185325 -0.186384 0.000096 
-1.141739 -0.369599 0.000215 
-1.069840 -0.543660 0.000607 
-0.971730 -0.704247 0.000851 
-0.849276 -0.847409 0.001107 
-0.705998 -0.969706 0.001464 
-0.545409 -1.068364 0.001228 
-0.371469 -1.141205 0.000925 
-0.188429 -1.185548 0.000462 
0.187030 -1.185692 -0.000310 
0.370118 -1.141339 -0.000715 
0.544108 -1.068487 -0.000856 
0.704612 -0.970180 -0.000659 
0.847868 -0.847866 -0.000432 
0.970258 -0.704588 -0.000140 
1.068381 -0.544098 0.000034 
1.140929 -0.370026 -0.000080 
1.184322 -0.186919 -0.000102 
0.005314 -1.185496 -0.187566 
0.010946 -1.140713 -0.370627 
0.015474 -1.068617 -0.544576 
0.018562 -0.970590 -0.705121 
0.019658 -0.848579 -0.848392 
0.018898 -0.705571 -0.970789 
0.016125 -0.545068 -1.069143 
0.011813 -0.371227 -1.141197 
0.006310 -0.188260 -1.185251 
-0.005816 0.187182 -1.185181 
-0.011719 0.370282 -1.141421 
-0.016101 0.544441 -1.069472 
-0.018784 0.705094 -0.971106 
-0.019410 0.848448 -0.848795 
-0.018276 0.970866 -0.705611 
-0.015171 1.069508 -0.545008 
-0.010876 1.141220 -0.371006 
-0.005738 1.185912 -0.187907 
0.005983 1.184932 0.187581 
0.011801 1.140814 0.370701 
0.016602 1.068468 0.544721 
0.019191 0.969974 0.705261 
0.019670 0.847585 0.848420 
0.018516 0.704341 0.970776 
0.015449 0.543745 1.069305 
0.011123 0.369678 1.141418 
0.005607 0.186476 1.185142 
-0.006083 -0.188942 1.185244 
-0.011258 -0.371958 1.141173 
-0.015518 -0.545836 1.069282 
-0.018013 -0.706331 0.970930 
-0.018778 -0.849346 0.848686 
-0.017955 -0.971588 0.705519 
-0.015237 -1.069854 0.544952 
-0.011210 -1.141940 0.370992 
-0.006275 -1.185692 0.187832 
-1.184700 0.007187 0.187641 
-1.141013 0.012385 0.370743 
-1.069437 0.016247 0.544695 
-0.971408 0.018681 0.705283 
-0.849150 0.019080 0.848470 
-0.705936 0.017876 0.970711 
-0.545268 0.014640 1.069040 
-0.371394 0.010326 1.141212 
-0.188288 0.005003 1.185142 
0.187160 -0.006763 1.185278 
0.370175 -0.011806 1.141333 
0.544048 -0.016024 1.069078 
0.704561 -0.018732 0.970670 
0.847732 -0.019627 0.848396 
0.969982 -0.018470 0.705211 
1.068039 -0.015389 0.544704 
1.140009 -0.011097 0.370786 
1.184099 -0.005608 0.187750 
1.185806 0.006655 -0.187699 
1.141835 0.011849 -0.370795 
1.069338 0.016067 -0.544811 
0.970845 0.019074 -0.705327 
0.848420 0.020322 -0.848570 
0.705265 0.019656 -0.970851 
0.544953 0.016557 -1.069331 
0.371071 0.012066 -1.141212 
0.187888 0.005929 -1.185192 
-0.187501 -0.006979 -1.185335 
-0.370541 -0.012627 -1.141434 
-0.544561 -0.017197 -1.069448 
-0.705066 -0.020123 -0.971079 
-0.848353 -0.020892 -0.848748 
-0.970776 -0.019521 -0.705571 
-1.069581 -0.016052 -0.544933 
-1.141833 -0.011387 -0.370936 
-1.185257 -0.005408 -0.187812 
0.825132 -0.385555 -0.414953 
0.428394 -0.785867 -0.443580 
0.404977 -0.365817 -0.838041 
0.897332 -0.288829 -0.336907 
0.305545 -0.889578 -0.335133 
0.690854 -0.321131 -0.649663 
0.569484 -0.619044 -0.540165 
0.871828 -0.476990 -0.108658 
0.195736 -0.613913 -0.764261 
0.617996 -0.155754 -0.771308 
0.876990 -0.143686 -0.460701 
0.219287 -0.847582 -0.480831 
0.955949 -0.130138 -0.266275 
0.810110 -0.279145 -0.517760 
0.691260 -0.635054 -0.343990 
0.469619 -0.858120 -0.202372 
0.633359 -0.752383 -0.175459 
0.538722 -0.463910 -0.703345 
0.800772 -0.127139 -0.586566 
0.566148 -0.745688 -0.349060 
0.986605 -0.118782 -0.113713 
0.775348 -0.612311 -0.152317 
0.160645 -0.945875 -0.277773 
0.940651 -0.301275 -0.159301 
0.744898 -0.457447 -0.487002 
0.273030 -0.948789 -0.152680 
0.558565 -0.286025 -0.779285 
0.348241 -0.696162 -0.626054 
0.838905 -0.460601 -0.290081 
0.503930 -0.167363 -0.847808 
0.162709 -0.753473 -0.635651 
0.208353 -0.474353 -0.855156 
0.186696 -0.312265 -0.931558 
0.365306 -0.546304 -0.753248 
0.648992 -0.467830 -0.600638 
0.127935 -0.983232 -0.125403 
0.461566 -0.590236 -0.661366 
0.336074 -0.205505 -0.919272 
0.209316 -0.126196 -0.969860 
0.489632 0.594981 -0.638370 
0.496003 0.792453 -0.359333 
0.801630 0.385005 -0.455178 
0.388603 0.480154 -0.786934 
0.342924 0.891240 -0.302294 
0.281800 0.322312 -0.903920 
0.165162 0.169255 -0.971701 
0.756308 0.231641 -0.610651 
0.662746 0.550056 -0.507696 
0.498518 0.851906 -0.170577 
0.596992 0.191872 -0.778701 
0.172370 0.882216 -0.441825 
0.156225 0.480608 -0.863611 
0.545678 0.694346 -0.471180 
0.144996 0.956155 -0.256520 
0.385885 0.151337 -0.909956 
0.114048 0.326954 -0.938365 
0.618482 0.711765 -0.335943 
0.100602 0.629195 -0.771889 
0.153581 0.760492 -0.633413 
0.287585 0.633660 -0.719663 
0.853307 0.492086 -0.171106 
0.599710 0.408246 -0.687929 
0.364104 0.774944 -0.519330 
0.754475 0.563326 -0.336728 
0.122641 0.986438 -0.111249 
0.285682 0.949078 -0.140068 
0.704054 0.695471 -0.148340 
0.945062 0.155855 -0.285658 
0.464925 0.318794 -0.825922 
0.850201 0.419442 -0.316557 
0.873701 0.183262 -0.449591 
0.937195 0.298809 -0.177068 
0.892168 0.293943 -0.341021 
0.982399 0.133211 -0.131808 
0.717122 0.398615 -0.570542 
0.472646 0.448080 0.759015 
0.463718 0.797679 0.383253 
0.838267 0.402051 0.372317 
0.341579 0.304242 0.889390 
0.313179 0.900997 0.296290 
0.909582 0.330859 0.255570 
0.963914 0.162692 0.210168 
0.563606 0.621503 0.543992 
0.121490 0.477225 0.870213 
0.756178 0.151772 0.636839 
0.446947 0.147888 0.882202 
0.434973 0.881215 0.183148 
0.868752 0.468433 0.168024 
0.265689 0.133468 0.954676 
0.258894 0.954584 0.142225 
0.940292 0.319094 0.123616 
0.617314 0.144819 0.773616 
0.523563 0.278511 0.805650 
0.332576 0.620759 0.709480 
0.778814 0.618372 0.114405 
0.674074 0.719616 0.170041 
0.599776 0.481971 0.639248 
0.208387 0.748614 0.628674 
0.766974 0.570185 0.298173 
0.638760 0.676606 0.366711 
0.403637 0.710860 0.574670 
0.558873 0.798547 0.222574 
0.114622 0.984909 0.123600 
0.115780 0.119418 0.985872 
0.478800 0.583897 0.655305 
0.165746 0.608593 0.775635 
0.712910 0.495217 0.498567 
0.651206 0.336072 0.681465 
0.166680 0.304243 0.937800 
0.174147 0.946210 0.268499 
0.790695 0.306794 0.531744 
0.842496 0.127235 0.523785 
0.229306 0.860250 0.453071 
0.890286 0.222647 0.399277 
0.269227 0.469285 0.840895 
0.502780 -0.794844 0.341424 
0.319147 -0.382229 0.867327 
0.317445 -0.879069 0.358896 
0.136994 -0.470416 0.872222 
0.508513 -0.172268 0.843295 
0.420899 -0.888050 0.187229 
0.595955 -0.559075 0.576465 
0.261214 -0.182967 0.947949 
0.222081 -0.959734 0.178950 
0.909494 -0.378923 0.162623 
0.761244 -0.413409 0.497254 
0.733897 -0.663714 0.140793 
0.864544 -0.200934 0.458041 
0.952001 -0.188444 0.234254 
0.498129 -0.335676 0.799330 
0.555693 -0.686501 0.469852 
0.606124 -0.778391 0.162198 
0.700574 -0.644839 0.303685 
[...]
POINT_DATA 1108
SCALARS u float 1
LOOKUP_TABLE default
0.000670
0.001083
0.000302
0.001019
0.001131
0.000231
0.000764
0.001392
0.000260
0.001055
0.001361
0.000604
0.000650
0.000759
0.000932
0.000841
0.000687
0.000346
0.000220
0.000492
0.000561
0.000553
0.000684
0.000763
0.000979
0.000971
0.001011
0.001217
0.001399
0.001642
0.001623
0.001044
0.000863
0.000833
0.000801
0.001149
0.000923
0.001009
0.000728
0.001096
0.006204
0.010957
0.014003
0.014911
0.013841
0.010753
0.006162
0.005505
0.010501
0.014159
0.015445
0.014484
0.011253
0.006189
0.006072
0.011265
0.014448
0.015270
0.013876
0.010356
0.005494
0.006384
0.011481
0.014848
0.015537
0.014261
0.010815
0.005669
0.005691
0.010647
0.014155
0.015584
0.014572
0.011264
0.006557
0.005169
0.010140
0.013756
0.015111
0.014521
0.011510
0.006943
0.005642
0.011028
0.014983
0.016572
0.015438
0.011970
0.006684
0.006360
0.011739
0.015214
0.016120
0.014724
0.011189
0.006518
0.000747
0.000721
0.000815
0.000782
0.000833
0.000853
0.000648
0.000352
0.000146
0.000433
0.000651
0.000737
0.000645
0.000820
0.001049
0.001055
0.001280
0.001363
0.001344
0.001327
0.001429
0.001659
0.001743
0.001953
0.001614
0.001131
0.000904
0.000890
0.001005
0.001310
0.001174
0.001030
0.000952
0.001078
0.000868
0.001213
0.005324
0.010962
0.015487
0.018565
0.019659
0.018899
0.016128
0.011820
0.006333
0.005842
0.011732
0.016107
0.018788
0.019412
0.018278
0.015176
0.010878
0.005781
0.005992
0.011810
0.016619
0.019209
0.019693
0.018543
0.015485
0.011183
0.005744
0.006204
0.011316
0.015553
0.018040
0.018797
0.017972
0.015252
0.011231
0.006293
0.007206
0.012388
0.016249
0.018691
0.019091
0.017886
0.014649
0.010343
0.005036
0.006786
0.011824
0.016042
0.018749
0.019644
0.018490
0.015434
0.011169
0.005720
0.006680
0.011863
0.016068
0.019074
0.020322
0.019657
0.016559
0.012069
0.005931
0.006983
0.012631
0.017200
0.020126
0.020893
0.019522
0.016057
0.011402
0.005408
0.012843
0.013458
0.015880
0.010591
0.010250
0.017176
0.016203
0.004224
0.015967
0.016508
0.013095
0.013272
0.008548
0.015011
0.011602
0.006802
0.006457
0.017815
0.015556
0.011409
0.004140
0.005719
0.008233
0.005842
0.015082
0.004702
0.017001
0.016623
0.009302
0.015107
0.015572
0.014539
0.011187
0.017036
0.017061
0.003495
0.017422
0.012240
0.007854
0.017110
0.011709
0.014035
0.016553
0.009438
0.013027
0.007593
0.016074
0.015723
0.006585
0.016318
0.012251
0.014028
0.014767
0.007232
0.012642
0.010557
0.011438
0.015359
0.015567
0.016624
0.006817
0.017307
0.014979
0.011251
0.003167
0.004467
0.006171
0.009016
0.015766
0.010320
0.012907
0.006440
0.010710
0.004682
0.016232
0.016499
0.013171
0.011887
0.013092
0.010168
0.007961
0.006000
0.016297
0.013360
0.015304
0.013143
0.006695
0.005801
0.009102
0.005209
0.003670
0.015477
0.015441
0.016478
0.004349
0.006474
0.016924
0.015814
0.010647
0.012804
0.016331
0.008368
0.004343
0.005349
0.017033
0.015406
0.015282
0.016639
0.010305
0.008939
0.014736
0.013704
0.013677
0.011499
0.014685
0.011186
0.014077
0.011116
0.013433
0.014565
0.006575
0.016266
0.009915
0.006211
0.005897
0.014647
0.005500
0.012676
0.007349
0.015853
0.014507
0.005985
0.010178
0.005926
0.009869
0.014773
0.011461
0.014685
0.005975
0.016307
0.015843
0.013335
0.016810
0.013566
0.009608
0.016842
0.016055
0.015221
0.015458
0.015776
0.012997
0.009984
0.003505
0.016394
0.012097
0.014277
0.015481
0.009817
0.011935
0.006868
0.015563
0.015682
0.007192
0.015140
0.012200
0.013329
0.014738
0.007825
0.011270
0.009981
0.011818
0.014725
0.014968
0.015753
0.007518
0.016461
0.014664
0.012068
0.003908
0.005263
0.007229
0.009420
0.014560
0.011017
0.013157
0.006826
0.011222
0.005184
0.016013
0.016986
0.012573
0.012181
0.013807
0.008877
0.007931
0.006132
0.016604
0.013598
0.016382
0.014011
0.005955
0.005493
0.009724
0.004509
0.003677
0.016497
0.016259
0.016626
0.003579
0.005745
0.017498
0.015611
0.010431
0.012748
0.016135
0.007727
0.003461
0.005652
0.017273
0.015510
0.015831
0.017415
0.010811
0.007643
0.015566
0.014547
0.012662
0.011948
0.014994
0.011225
0.014735
0.010775
0.013882
0.015288
0.006172
0.017048
0.010217
0.005274
0.005298
0.015296
0.004903
0.013291
0.007149
0.016716
0.014933
0.005718
0.010509
0.005555
0.010059
0.014794
0.011049
0.014767
0.005133
0.016949
0.016739
0.013162
0.017575
0.014263
0.010379
0.017754
0.016491
0.015672
0.016016
0.016767
0.013616
0.010577
0.002606
0.013325
0.014215
0.014452
0.011446
0.010921
0.016334
0.016053
0.004987
0.015484
0.015119
0.013173
0.014168
0.009032
0.014826
0.012689
0.007596
0.007297
0.016770
0.015105
0.012449
0.004614
0.006660
0.008831
0.006495
0.015264
0.005288
0.015571
0.016213
0.010569
0.013494
0.015558
0.013725
0.010172
0.016097
0.016510
0.004231
0.016668
0.010673
0.006541
0.016866
0.022577
0.018858
0.011448
0.011222
0.009503
0.009435
0.015085
0.003701
0.004037
0.008730
0.021641
0.020305
0.020387
0.018764
0.017678
0.019289
0.018589
0.013529
0.013867
0.006106
0.007014
0.013357
0.012606
0.016375
0.021331
0.005541
0.005938
0.007714
0.007721
0.021634
0.022549
0.021789
0.021932
0.022184
0.016830
0.017176
0.020527
0.019257
0.021622
0.020025
0.021009
0.019692
0.019652
0.018797
0.015654
0.015048
0.010439
0.006016
0.010801
0.010815
0.019959
0.019594
0.003473
0.002916
0.020659
0.021387
0.019041
0.004330
0.016071
0.012446
0.011949
0.016625
0.022199
0.018610
0.011418
0.011880
0.009498
0.010226
0.014642
0.004363
0.004909
0.007915
0.021137
0.020531
0.020311
0.017712
0.018415
0.018921
0.018487
0.013359
0.013839
0.007100
0.007610
0.012913
0.013536
0.016251
0.020790
0.006665
0.006729
0.007604
0.008705
0.021404
0.021734
0.022202
0.021637
0.021511
0.017028
0.016576
0.019292
0.019983
0.019822
0.021284
0.019701
0.020632
0.018595
0.019310
0.015011
0.015639
0.010762
0.006747
0.011174
0.011212
0.019316
0.019613
0.004283
0.003589
0.020542
0.020867
0.018728
0.005334
0.015530
0.012069
0.011353
0.021146
0.020591
0.015996
0.015880
0.013050
0.012908
0.009419
0.011198
0.009333
0.007712
0.006188
0.012171
0.020596
0.019980
0.007550
0.018233
0.006311
0.018623
0.019181
0.020503
0.018170
0.017604
0.005721
0.013951
0.015550
0.021392
0.014231
0.012990
0.004027
0.009120
0.018353
0.021118
0.017561
0.019608
0.021635
0.016526
0.019866
0.005187
0.019562
0.018981
0.013132
0.019880
0.006070
0.019870
0.013290
0.017081
0.011770
0.020133
0.019747
0.017775
0.016076
0.019875
0.021657
0.003279
0.005639
0.021403
0.016972
0.012369
0.019323
0.006275
0.011835
0.004490
0.020949
0.020315
0.014184
0.014897
0.014207
0.011841
0.011210
0.007977
0.009321
0.020185
0.012476
0.019535
0.012309
0.017821
0.008559
0.018155
0.007252
0.019986
0.019612
0.017329
0.017979
0.013239
0.007251
0.007633
0.021073
0.012929
0.014163
0.008199
0.005997
0.018145
0.014030
0.003915
0.020586
0.017154
0.019776
0.021175
0.017209
0.019077
0.019349
0.005933
0.018378
0.013500
0.019643
0.006561
0.019163
0.014215
0.016335
0.012873
0.019881
0.019342
0.016751
0.016814
0.021249
0.020160
0.005093
0.004173
0.017406
0.020846
0.008958
0.018816
0.007279
0.003623
0.017189
0.022596
0.018506
0.011610
0.011439
0.009427
0.009204
0.003694
0.004060
0.020595
0.021494
0.021340
0.020489
0.017893
0.018451
0.018324
0.019574
0.014199
0.013613
0.006686
0.006343
0.012788
0.013307
0.016635
0.021361
0.005656
0.005850
0.007437
0.007648
0.021405
0.015287
0.011441
0.022422
0.021855
0.021901
0.022099
0.017079
0.017255
0.019464
0.020552
0.020370
0.019894
0.021112
0.019903
0.019429
0.018935
0.015582
0.015083
0.010545
0.005763
0.010926
0.011110
0.019750
0.019973
0.003090
0.002945
0.021250
0.020842
0.013754
0.004284
0.009948
0.005760
0.022042
0.020578
0.015082
0.016649
0.013449
0.013312
0.010340
0.010575
0.009461
0.008727
0.005322
0.020852
0.011633
0.019782
0.018629
0.007617
0.017931
0.006137
0.020579
0.021294
0.019229
0.018153
0.014260
0.006304
0.014571
0.021813
0.014883
0.013769
0.009223
0.005266
0.017526
0.021212
0.017151
0.019901
0.022098
0.016746
0.020685
0.019722
0.005155
0.018304
0.012606
0.019697
0.005876
0.020301
0.012984
0.017728
0.011587
0.021302
0.020326
0.018627
0.016737
0.022581
0.020422
0.004494
0.005255
0.021980
0.016968
0.011685
0.020362
0.011060
0.005687
0.003772
0.016204
0.021453
0.017346
0.011275
0.011460
0.009632
0.010016
0.004609
0.004805
0.020323
0.019728
0.020003
0.019569
0.017849
0.017595
0.018257
0.017665
0.013182
0.013339
0.006965
0.007230
0.013009
0.012943
0.015569
0.020376
0.006347
0.006280
0.008048
0.008414
0.020412
0.014610
0.010822
0.021166
0.020879
0.020947
0.021113
0.016620
0.016482
0.019427
0.018830
0.019239
0.018861
0.019708
0.019027
0.018688
0.018536
0.015116
0.015159
0.010507
0.006453
0.010691
0.010844
0.019059
0.018995
0.004197
0.003603
0.020331
0.020014
0.013099
0.005022
0.009678
0.005877
0.020290
0.020112
0.015999
0.013094
0.015216
0.009745
0.011974
0.011687
0.008083
0.008539
0.007227
0.012541
0.020092
0.019540
0.008413
0.017553
0.007518
0.018137
0.019563
0.018531
0.017304
0.017531
0.006805
0.012881
0.015345
0.020666
0.013066
0.013636
0.005091
0.008330
0.018007
0.017244
0.020520
0.020923
0.019184
0.019004
0.016233
0.006612
0.018953
0.013005
0.018431
0.007463
0.019426
0.013365
0.019265
0.012095
0.016335
0.019416
0.018854
0.015906
0.017044
0.019306
0.020742
0.004795
0.004209
0.020676
0.016759
0.012451
0.018615
0.007716
0.012346
0.005719
0.003087
0.005113
0.006138
0.002713
0.004744
0.002177
0.002368
0.002442
0.001078
0.002931
0.005334
0.006327
0.000789
0.005044
0.001416
0.001465
0.005213
0.004651
0.006004
0.001163
0.003199
0.002668
0.001512
0.002713
0.005224
0.003700
0.009417
0.002066
0.001228
0.001005
0.003949
0.003178
0.006374
0.007930
0.007410
0.008909
0.009592
0.001669
0.002542
0.001424
0.004792
0.006093
0.003362
0.002286
0.007007
0.007912
0.003084
0.003286
0.003123
0.000817
0.004874
0.007196
0.007953
0.003999
0.004384
0.009594
0.006713
0.004886
0.002504
0.008887
0.001719
0.006192
0.008386
0.006289
0.008866
0.000703
0.002623
0.005279
0.001406
0.001095
0.005046
0.006276
0.001977
0.007537
0.004948
0.009116
0.005324
0.008181
0.009564
0.002272
0.006566
0.008409
0.005411
0.007376
0.008820
0.004708
0.001098
0.000590
0.003340
0.006549
0.005643
0.003652
0.003840
0.008020
0.007268
0.008583
0.005972
0.004630
0.003186
0.002158
0.000644
0.001398
