# vtk DataFile Version 2.0
Unstructured Grid Example
ASCII
DATASET UNSTRUCTURED_GRID
POINTS 1108 float
1.000000 0.000000 0.000000 
-1.000000 0.000000 0.000000 
0.000000 1.000000 0.000000 
0.000000 -1.000000 0.000000 
0.000000 0.000000 1.000000 
0.000000 0.000000 -1.000000 
1.200000 0.000000 0.000000 
-1.200000 0.000000 0.000000 
0.000000 1.200000 0.000000 
0.000000 -1.200000 0.000000 
0.000000 0.000000 1.200000 
0.000000 0.000000 -1.200000 
0.980785 0.195090 0.000000 
0.923880 0.382683 0.000000 
0.831470 0.555570 0.000000 
0.707107 0.707107 0.000000 
0.555570 0.831470 0.000000 
0.382683 0.923880 0.000000 
0.195090 0.980785 0.000000 
-0.195090 0.980785 0.000000 
-0.382683 0.923880 0.000000 
-0.555570 0.831470 0.000000 
-0.707107 0.707107 0.000000 
-0.831470 0.555570 0.000000 
-0.923880 0.382683 0.000000 
-0.980785 0.195090 0.000000 
-0.980785 -0.195090 0.000000 
-0.923880 -0.382683 0.000000 
-0.831470 -0.555570 0.000000 
-0.707107 -0.707107 0.000000 
-0.555570 -0.831470 0.000000 
-0.382683 -0.923880 0.000000 
-0.195090 -0.980785 0.000000 
0.195090 -0.980785 0.000000 
0.382683 -0.923880 0.000000 
0.555570 -0.831470 0.000000 
0.707107 -0.707107 0.000000 
0.831470 -0.555570 0.000000 
0.923880 -0.382683 0.000000 
0.980785 -0.195090 0.000000 
0.000000 -0.195090 0.980785 
0.000000 -0.382683 0.923880 
0.000000 -0.555570 0.831470 
0.000000 -0.707107 0.707107 
0.000000 -0.831470 0.555570 
0.000000 -0.923880 0.382683 
0.000000 -0.980785 0.195090 
0.000000 -0.980785 -0.195090 
0.000000 -0.923880 -0.382683 
0.000000 -0.831470 -0.555570 
0.000000 -0.707107 -0.707107 
0.000000 -0.555570 -0.831470 
0.000000 -0.382683 -0.923880 
0.000000 -0.195090 -0.980785 
0.000000 0.195090 -0.980785 
0.000000 0.382683 -0.923880 
0.000000 0.555570 -0.831470 
0.000000 0.707107 -0.707107 
0.000000 0.831470 -0.555570 
0.000000 0.923880 -0.382683 
0.000000 0.980785 -0.195090 
0.000000 0.980785 0.195090 
0.000000 0.923880 0.382683 
0.000000 0.831470 0.555570 
0.000000 0.707107 0.707107 
0.000000 0.555570 0.831470 
0.000000 0.382683 0.923880 
0.000000 0.195090 0.980785 
0.980785 0.000000 0.195090 
0.923880 0.000000 0.382683 
0.831470 0.000000 0.555570 
0.707107 0.000000 0.707107 
0.555570 0.000000 0.831470 
0.382683 0.000000 0.923880 
0.195090 0.000000 0.980785 
-0.195090 0.000000 0.980785 
-0.382683 0.000000 0.923880 
-0.555570 0.000000 0.831470 
-0.707107 0.000000 0.707107 
-0.831470 0.000000 0.555570 
-0.923880 0.000000 0.382683 
-0.980785 0.000000 0.195090 
-0.980785 0.000000 -0.195090 
-0.923880 0.000000 -0.382683 
-0.831470 0.000000 -0.555570 
-0.707107 0.000000 -0.707107 
-0.555570 0.000000 -0.831470 
-0.382683 0.000000 -0.923880 
-0.195090 0.000000 -0.980785 
0.195090 0.000000 -0.980785 
0.382683 0.000000 -0.923880 
0.555570 0.000000 -0.831470 
0.707107 0.000000 -0.707107 
0.831470 0.000000 -0.555570 
0.923880 0.000000 -0.382683 
0.980785 0.000000 -0.195090 
1.185226 0.187721 0.000000 
1.141268 0.370820 0.000000 
1.069208 0.544789 0.000000 
0.970820 0.705342 0.000000 
0.848528 0.848528 0.000000 
0.705342 0.970820 0.000000 
0.544789 1.069208 0.000000 
0.370820 1.141268 0.000000 
0.187721 1.185226 0.000000 
-0.187721 1.185226 0.000000 
-0.370820 1.141268 0.000000 
-0.544789 1.069208 0.000000 
-0.705342 0.970820 0.000000 
-0.848528 0.848528 0.000000 
-0.970820 0.705342 0.000000 
-1.069208 0.544789 0.000000 
-1.141268 0.370820 0.000000 
-1.185226 0.187721 0.000000 
-1.185226 -0.187721 0.000000 
-1.141268 -0.370820 0.000000 
-1.069208 -0.544789 0.000000 
-0.970820 -0.705342 0.000000 
-0.848528 -0.848528 0.000000 
-0.705342 -0.970820 0.000000 
-0.544789 -1.069208 0.000000 
-0.370820 -1.141268 0.000000 
-0.187721 -1.185226 0.000000 
0.187721 -1.185226 0.000000 
0.370820 -1.141268 0.000000 
0.544789 -1.069208 0.000000 
0.705342 -0.970820 0.000000 
0.848528 -0.848528 0.000000 
0.970820 -0.705342 0.000000 
1.069208 -0.544789 0.000000 
1.141268 -0.370820 0.000000 
1.185226 -0.187721 0.000000 
0.000000 -1.185226 -0.187721 
0.000000 -1.141268 -0.370820 
0.000000 -1.069208 -0.544789 
0.000000 -0.970820 -0.705342 
0.000000 -0.848528 -0.848528 
0.000000 -0.705342 -0.970820 
0.000000 -0.544789 -1.069208 
0.000000 -0.370820 -1.141268 
0.000000 -0.187721 -1.185226 
0.000000 0.187721 -1.185226 
0.000000 0.370820 -1.141268 
0.000000 0.544789 -1.069208 
0.000000 0.705342 -0.970820 
0.000000 0.848528 -0.848528 
0.000000 0.970820 -0.705342 
0.000000 1.069208 -0.544789 
0.000000 1.141268 -0.370820 
0.000000 1.185226 -0.187721 
0.000000 1.185226 0.187721 
0.000000 1.141268 0.370820 
0.000000 1.069208 0.544789 
0.000000 0.970820 0.705342 
0.000000 0.848528 0.848528 
0.000000 0.705342 0.970820 
0.000000 0.544789 1.069208 
0.000000 0.370820 1.141268 
0.000000 0.187721 1.185226 
0.000000 -0.187721 1.185226 
0.000000 -0.370820 1.141268 
0.000000 -0.544789 1.069208 
0.000000 -0.705342 0.970820 
0.000000 -0.848528 0.848528 
0.000000 -0.970820 0.705342 
0.000000 -1.069208 0.544789 
0.000000 -1.141268 0.370820 
0.000000 -1.185226 0.187721 
-1.185226 0.000000 0.187721 
-1.141268 0.000000 0.370820 
-1.069208 0.000000 0.544789 
-0.970820 0.000000 0.705342 
-0.848528 0.000000 0.848528 
-0.705342 0.000000 0.970820 
-0.544789 0.000000 1.069208 
-0.370820 0.000000 1.141268 
-0.187721 0.000000 1.185226 
0.187721 0.000000 1.185226 
0.370820 0.000000 1.141268 
0.544789 0.000000 1.069208 
0.705342 0.000000 0.970820 
0.848528 0.000000 0.848528 
0.970820 0.000000 0.705342 
1.069208 0.000000 0.544789 
1.141268 0.000000 0.370820 
1.185226 0.000000 0.187721 
1.185226 0.000000 -0.187721 
1.141268 0.000000 -0.370820 
1.069208 0.000000 -0.544789 
0.970820 0.000000 -0.705342 
0.848528 0.000000 -0.848528 
0.705342 0.000000 -0.970820 
0.544789 0.000000 -1.069208 
0.370820 0.000000 -1.141268 
0.187721 0.000000 -1.185226 
-0.187721 0.000000 -1.185226 
-0.370820 0.000000 -1.141268 
-0.544789 0.000000 -1.069208 
-0.705342 0.000000 -0.970820 
-0.848528 0.000000 -0.848528 
-0.970820 0.000000 -0.705342 
-1.069208 0.000000 -0.544789 
-1.141268 0.000000 -0.370820 
-1.185226 0.000000 -0.187721 
0.818835 -0.396747 -0.414852 
0.417312 -0.793481 -0.442988 
0.394182 -0.377463 -0.837939 
0.892993 -0.298490 -0.336849 
0.296532 -0.894443 -0.334724 
0.682167 -0.335947 -0.649452 
0.557876 -0.630343 -0.539854 
0.870070 -0.480829 -0.108548 
0.180816 -0.619586 -0.763819 
0.612998 -0.171487 -0.771250 
0.873746 -0.156372 -0.460561 
0.206858 -0.852228 -0.480539 
0.953967 -0.138450 -0.266041 
0.803939 -0.292828 -0.517623 
0.683664 -0.643817 -0.343660 
0.464338 -0.862366 -0.201782 
0.629204 -0.757298 -0.174936 
0.526939 -0.477271 -0.703241 
0.797392 -0.142323 -0.586439 
0.557683 -0.753321 -0.348564 
0.985907 -0.122859 -0.113544 
0.772116 -0.617022 -0.152055 
0.152831 -0.948460 -0.277608 
0.938421 -0.306671 -0.159116 
0.736335 -0.469861 -0.486869 
0.268918 -0.951041 -0.152333 
0.549963 -0.300688 -0.779183 
0.334138 -0.704952 -0.625615 
0.834385 -0.468730 -0.289990 
0.498447 -0.181439 -0.847721 
0.147792 -0.757931 -0.635372 
0.195242 -0.480629 -0.854913 
0.177104 -0.318019 -0.931396 
0.351541 -0.556336 -0.752934 
0.638555 -0.481324 -0.600479 
0.124597 -0.984263 -0.125308 
0.448386 -0.601625 -0.661057 
0.329444 -0.215794 -0.919184 
0.205077 -0.132807 -0.969694 
0.502019 0.583181 -0.638653 
0.504816 0.784749 -0.359625 
0.808537 0.372788 -0.455299 
0.400672 0.468827 -0.787187 
0.350903 0.886204 -0.302506 
0.291123 0.313214 -0.903960 
0.170270 0.163637 -0.971716 
0.761626 0.216473 -0.610791 
0.672761 0.537938 -0.507953 
0.503088 0.847174 -0.170878 
0.601991 0.176338 -0.778789 
0.183899 0.878071 -0.441784 
0.169091 0.475016 -0.863579 
0.556385 0.684181 -0.471521 
0.152041 0.954522 -0.256459 
0.390169 0.139445 -0.910123 
0.123752 0.322796 -0.938343 
0.626248 0.703374 -0.336272 
0.115490 0.625423 -0.771691 
0.168280 0.755370 -0.633323 
0.301780 0.625010 -0.719925 
0.856859 0.486270 -0.171276 
0.609357 0.393878 -0.688146 
0.376705 0.766852 -0.519645 
0.761133 0.554257 -0.336861 
0.125745 0.985810 -0.111210 
0.289546 0.946840 -0.140200 
0.707820 0.690588 -0.148591 
0.946955 0.147041 -0.285754 
0.473540 0.305590 -0.826060 
0.855153 0.410388 -0.316695 
0.876703 0.170710 -0.449723 
0.939595 0.292835 -0.177224 
0.896086 0.283976 -0.341156 
0.982891 0.128556 -0.131903 
0.725463 0.384691 -0.570715 
0.461192 0.459953 0.758779 
0.452880 0.805156 0.382914 
0.831733 0.411980 0.372145 
0.332842 0.313990 0.889172 
0.304049 0.905469 0.296107 
0.905863 0.337896 0.255419 
0.963022 0.168625 0.210130 
0.551618 0.632539 0.543702 
0.108660 0.480946 0.869991 
0.752793 0.166697 0.636801 
0.442677 0.160318 0.882233 
0.429165 0.884529 0.182826 
0.865000 0.472855 0.167876 
0.261823 0.141708 0.954656 
0.254119 0.956665 0.142183 
0.938545 0.322318 0.123469 
0.613357 0.159781 0.773475 
0.515821 0.291868 0.805445 
0.318312 0.629005 0.709246 
0.775406 0.621061 0.114140 
0.668996 0.723622 0.169753 
0.588812 0.494862 0.639071 
0.193318 0.753405 0.628497 
0.759722 0.577977 0.297934 
0.629357 0.685294 0.366446 
0.389930 0.719735 0.574401 
0.552180 0.803559 0.222238 
0.110464 0.986163 0.123614 
0.112399 0.123562 0.985951 
0.465838 0.594943 0.655010 
0.151007 0.613073 0.775460 
0.703232 0.507042 0.498370 
0.642689 0.350365 0.681319 
0.157853 0.309559 0.937686 
0.165634 0.948935 0.268490 
0.784208 0.320024 0.531603 
0.840135 0.140734 0.523800 
0.216431 0.864863 0.452957 
0.886628 0.233549 0.399181 
0.256689 0.476925 0.840627 
0.511749 -0.788176 0.341894 
0.329519 -0.372713 0.867469 
0.327298 -0.873939 0.359314 
0.149512 -0.465543 0.872305 
0.513322 -0.158521 0.843428 
0.426564 -0.884754 0.187758 
0.606805 -0.546960 0.576734 
0.266697 -0.174707 0.947813 
0.227696 -0.957095 0.179230 
0.912970 -0.374162 0.162754 
0.769215 -0.401123 0.497402 
0.737920 -0.659975 0.141094 
0.868524 -0.188901 0.458239 
0.954994 -0.181734 0.234435 
0.506843 -0.322434 0.799467 
0.566450 -0.676775 0.470224 
0.610895 -0.774813 0.162699 
0.707803 -0.637679 0.303941 
0.111620 -0.124647 0.985903 
0.140590 -0.290571 0.946469 
0.179932 -0.792161 0.583185 
0.148047 -0.903590 0.402003 
[...]
POINT_DATA 1108
SCALARS u float 1
LOOKUP_TABLE default
0.000670
0.001083
0.000302
0.001019
0.001131
0.000231
0.000764
0.001392
0.000260
0.001055
0.001361
0.000604
0.000650
0.000759
0.000932
0.000841
0.000687
0.000346
0.000220
0.000492
0.000561
0.000553
0.000684
0.000763
0.000979
0.000971
0.001011
0.001217
0.001399
0.001642
0.001623
0.001044
0.000863
0.000833
0.000801
0.001149
0.000923
0.001009
0.000728
0.001096
0.006204
0.010957
0.014003
0.014911
0.013841
0.010753
0.006162
0.005505
0.010501
0.014159
0.015445
0.014484
0.011253
0.006189
0.006072
0.011265
0.014448
0.015270
0.013876
0.010356
0.005494
0.006384
0.011481
0.014848
0.015537
0.014261
0.010815
0.005669
0.005691
0.010647
0.014155
0.015584
0.014572
0.011264
0.006557
0.005169
0.010140
0.013756
0.015111
0.014521
0.011510
0.006943
0.005642
0.011028
0.014983
0.016572
0.015438
0.011970
0.006684
0.006360
0.011739
0.015214
0.016120
0.014724
0.011189
0.006518
0.000747
0.000721
0.000815
0.000782
0.000833
0.000853
0.000648
0.000352
0.000146
0.000433
0.000651
0.000737
0.000645
0.000820
0.001049
0.001055
0.001280
0.001363
0.001344
0.001327
0.001429
0.001659
0.001743
0.001953
0.001614
0.001131
0.000904
0.000890
0.001005
0.001310
0.001174
0.001030
0.000952
0.001078
0.000868
0.001213
0.005324
0.010962
0.015487
0.018565
0.019659
0.018899
0.016128
0.011820
0.006333
0.005842
0.011732
0.016107
0.018788
0.019412
0.018278
0.015176
0.010878
0.005781
0.005992
0.011810
0.016619
0.019209
0.019693
0.018543
0.015485
0.011183
0.005744
0.006204
0.011316
0.015553
0.018040
0.018797
0.017972
0.015252
0.011231
0.006293
0.007206
0.012388
0.016249
0.018691
0.019091
0.017886
0.014649
0.010343
0.005036
0.006786
0.011824
0.016042
0.018749
0.019644
0.018490
0.015434
0.011169
0.005720
0.006680
0.011863
0.016068
0.019074
0.020322
0.019657
0.016559
0.012069
0.005931
0.006983
0.012631
0.017200
0.020126
0.020893
0.019522
0.016057
0.011402
0.005408
0.012843
0.013458
0.015880
0.010591
0.010250
0.017176
0.016203
0.004224
0.015967
0.016508
0.013095
0.013272
0.008548
0.015011
0.011602
0.006802
0.006457
0.017815
0.015556
0.011409
0.004140
0.005719
0.008233
0.005842
0.015082
0.004702
0.017001
0.016623
0.009302
0.015107
0.015572
0.014539
0.011187
0.017036
0.017061
0.003495
0.017422
0.012240
0.007854
0.017110
0.011709
0.014035
0.016553
0.009438
0.013027
0.007593
0.016074
0.015723
0.006585
0.016318
0.012251
0.014028
0.014767
0.007232
0.012642
0.010557
0.011438
0.015359
0.015567
0.016624
0.006817
0.017307
0.014979
0.011251
0.003167
0.004467
0.006171
0.009016
0.015766
0.010320
0.012907
0.006440
0.010710
0.004682
0.016232
0.016499
0.013171
0.011887
0.013092
0.010168
0.007961
0.006000
0.016297
0.013360
0.015304
0.013143
0.006695
0.005801
0.009102
0.005209
0.003670
0.015477
0.015441
0.016478
0.004349
0.006474
0.016924
0.015814
0.010647
0.012804
0.016331
0.008368
0.004343
0.005349
0.017033
0.015406
0.015282
0.016639
0.010305
0.008939
0.014736
0.013704
0.013677
0.011499
0.014685
0.011186
0.014077
0.011116
0.013433
0.014565
0.006575
0.016266
0.009915
0.006211
0.005897
0.014647
0.005500
0.012676
0.007349
0.015853
0.014507
0.005985
0.010178
0.005926
0.009869
0.014773
0.011461
0.014685
0.005975
0.016307
0.015843
0.013335
0.016810
0.013566
0.009608
0.016842
0.016055
0.015221
0.015458
0.015776
0.012997
0.009984
0.003505
0.016394
0.012097
0.014277
0.015481
0.009817
0.011935
0.006868
0.015563
0.015682
0.007192
0.015140
0.012200
0.013329
0.014738
0.007825
0.011270
0.009981
0.011818
0.014725
0.014968
0.015753
0.007518
0.016461
0.014664
0.012068
0.003908
0.005263
0.007229
0.009420
0.014560
0.011017
0.013157
0.006826
0.011222
0.005184
0.016013
0.016986
0.012573
0.012181
0.013807
0.008877
0.007931
0.006132
0.016604
0.013598
0.016382
0.014011
0.005955
0.005493
0.009724
0.004509
0.003677
0.016497
0.016259
0.016626
0.003579
0.005745
0.017498
0.015611
0.010431
0.012748
0.016135
0.007727
0.003461
0.005652
0.017273
0.015510
0.015831
0.017415
0.010811
0.007643
0.015566
0.014547
0.012662
0.011948
0.014994
0.011225
0.014735
0.010775
0.013882
0.015288
0.006172
0.017048
0.010217
0.005274
0.005298
0.015296
0.004903
0.013291
0.007149
0.016716
0.014933
0.005718
0.010509
0.005555
0.010059
0.014794
0.011049
0.014767
0.005133
0.016949
0.016739
0.013162
0.017575
0.014263
0.010379
0.017754
0.016491
0.015672
0.016016
0.016767
0.013616
0.010577
0.002606
0.013325
0.014215
0.014452
0.011446
0.010921
0.016334
0.016053
0.004987
0.015484
0.015119
0.013173
0.014168
0.009032
0.014826
0.012689
0.007596
0.007297
0.016770
0.015105
0.012449
0.004614
0.006660
0.008831
0.006495
0.015264
0.005288
0.015571
0.016213
0.010569
0.013494
0.015558
0.013725
0.010172
0.016097
0.016510
0.004231
0.016668
0.010673
0.006541
0.016866
0.022577
0.018858
0.011448
0.011222
0.009503
0.009435
0.015085
0.003701
0.004037
0.008730
0.021641
0.020305
0.020387
0.018764
0.017678
0.019289
0.018589
0.013529
0.013867
0.006106
0.007014
0.013357
0.012606
0.016375
0.021331
0.005541
0.005938
0.007714
0.007721
0.021634
0.022549
0.021789
0.021932
0.022184
0.016830
0.017176
0.020527
0.019257
0.021622
0.020025
0.021009
0.019692
0.019652
0.018797
0.015654
0.015048
0.010439
0.006016
0.010801
0.010815
0.019959
0.019594
0.003473
0.002916
0.020659
0.021387
0.019041
0.004330
0.016071
0.012446
0.011949
0.016625
0.022199
0.018610
0.011418
0.011880
0.009498
0.010226
0.014642
0.004363
0.004909
0.007915
0.021137
0.020531
0.020311
0.017712
0.018415
0.018921
0.018487
0.013359
0.013839
0.007100
0.007610
0.012913
0.013536
0.016251
0.020790
0.006665
0.006729
0.007604
0.008705
0.021404
0.021734
0.022202
0.021637
0.021511
0.017028
0.016576
0.019292
0.019983
0.019822
0.021284
0.019701
0.020632
0.018595
0.019310
0.015011
0.015639
0.010762
0.006747
0.011174
0.011212
0.019316
0.019613
0.004283
0.003589
0.020542
0.020867
0.018728
0.005334
0.015530
0.012069
0.011353
0.021146
0.020591
0.015996
0.015880
0.013050
0.012908
0.009419
0.011198
0.009333
0.007712
0.006188
0.012171
0.020596
0.019980
0.007550
0.018233
0.006311
0.018623
0.019181
0.020503
0.018170
0.017604
0.005721
0.013951
0.015550
0.021392
0.014231
0.012990
0.004027
0.009120
0.018353
0.021118
0.017561
0.019608
0.021635
0.016526
0.019866
0.005187
0.019562
0.018981
0.013132
0.019880
0.006070
0.019870
0.013290
0.017081
0.011770
0.020133
0.019747
0.017775
0.016076
0.019875
0.021657
0.003279
0.005639
0.021403
0.016972
0.012369
0.019323
0.006275
0.011835
0.004490
0.020949
0.020315
0.014184
0.014897
0.014207
0.011841
0.011210
0.007977
0.009321
0.020185
0.012476
0.019535
0.012309
0.017821
0.008559
0.018155
0.007252
0.019986
0.019612
0.017329
0.017979
0.013239
0.007251
0.007633
0.021073
0.012929
0.014163
0.008199
0.005997
0.018145
0.014030
0.003915
0.020586
0.017154
0.019776
0.021175
0.017209
0.019077
0.019349
0.005933
0.018378
0.013500
0.019643
0.006561
0.019163
0.014215
0.016335
0.012873
0.019881
0.019342
0.016751
0.016814
0.021249
0.020160
0.005093
0.004173
0.017406
0.020846
0.008958
0.018816
0.007279
0.003623
0.017189
0.022596
0.018506
0.011610
0.011439
0.009427
0.009204
0.003694
0.004060
0.020595
0.021494
0.021340
0.020489
0.017893
0.018451
0.018324
0.019574
0.014199
0.013613
0.006686
0.006343
0.012788
0.013307
0.016635
0.021361
0.005656
0.005850
0.007437
0.007648
0.021405
0.015287
0.011441
0.022422
0.021855
0.021901
0.022099
0.017079
0.017255
0.019464
0.020552
0.020370
0.019894
0.021112
0.019903
0.019429
0.018935
0.015582
0.015083
0.010545
0.005763
0.010926
0.011110
0.019750
0.019973
0.003090
0.002945
0.021250
0.020842
0.013754
0.004284
0.009948
0.005760
0.022042
0.020578
0.015082
0.016649
0.013449
0.013312
0.010340
0.010575
0.009461
0.008727
0.005322
0.020852
0.011633
0.019782
0.018629
0.007617
0.017931
0.006137
0.020579
0.021294
0.019229
0.018153
0.014260
0.006304
0.014571
0.021813
0.014883
0.013769
0.009223
0.005266
0.017526
0.021212
0.017151
0.019901
0.022098
0.016746
0.020685
0.019722
0.005155
0.018304
0.012606
0.019697
0.005876
0.020301
0.012984
0.017728
0.011587
0.021302
0.020326
0.018627
0.016737
0.022581
0.020422
0.004494
0.005255
0.021980
0.016968
0.011685
0.020362
0.011060
0.005687
0.003772
0.016204
0.021453
0.017346
0.011275
0.011460
0.009632
0.010016
0.004609
0.004805
0.020323
0.019728
0.020003
0.019569
0.017849
0.017595
0.018257
0.017665
0.013182
0.013339
0.006965
0.007230
0.013009
0.012943
0.015569
0.020376
0.006347
0.006280
0.008048
0.008414
0.020412
0.014610
0.010822
0.021166
0.020879
0.020947
0.021113
0.016620
0.016482
0.019427
0.018830
0.019239
0.018861
0.019708
0.019027
0.018688
0.018536
0.015116
0.015159
0.010507
0.006453
0.010691
0.010844
0.019059
0.018995
0.004197
0.003603
0.020331
0.020014
0.013099
0.005022
0.009678
0.005877
0.020290
0.020112
0.015999
0.013094
0.015216
0.009745
0.011974
0.011687
0.008083
0.008539
0.007227
0.012541
0.020092
0.019540
0.008413
0.017553
0.007518
0.018137
0.019563
0.018531
0.017304
0.017531
0.006805
0.012881
0.015345
0.020666
0.013066
0.013636
0.005091
0.008330
0.018007
0.017244
0.020520
0.020923
0.019184
0.019004
0.016233
0.006612
0.018953
0.013005
0.018431
0.007463
0.019426
0.013365
0.019265
0.012095
0.016335
0.019416
0.018854
0.015906
0.017044
0.019306
0.020742
0.004795
0.004209
0.020676
0.016759
0.012451
0.018615
0.007716
0.012346
0.005719
0.003087
0.005113
0.006138
0.002713
0.004744
0.002177
0.002368
0.002442
0.001078
0.002931
0.005334
0.006327
0.000789
0.005044
0.001416
0.001465
0.005213
0.004651
0.006004
0.001163
0.003199
0.002668
0.001512
0.002713
0.005224
0.003700
0.009417
0.002066
0.001228
0.001005
0.003949
0.003178
0.006374
0.007930
0.007410
0.008909
0.009592
0.001669
0.002542
0.001424
0.004792
0.006093
0.003362
0.002286
0.007007
0.007912
0.003084
0.003286
0.003123
0.000817
0.004874
0.007196
0.007953
0.003999
0.004384
0.009594
0.006713
0.004886
0.002504
0.008887
0.001719
0.006192
0.008386
0.006289
0.008866
0.000703
0.002623
0.005279
0.001406
0.001095
0.005046
0.006276
0.001977
0.007537
0.004948
0.009116
0.005324
0.008181
0.009564
0.002272
0.006566
0.008409
0.005411
0.007376
0.008820
0.004708
0.001098
0.000590
0.003340
0.006549
0.005643
0.003652
0.003840
0.008020
0.007268
0.008583
0.005972
0.004630
0.003186
0.002158
0.000644
0.001398
